% Model:              20230907_silksimulation_70kPa.mph
% Version:            COMSOL 6.1.0.357
% Date:               Oct 7 2023, 16:29
% Table:              テーブル 2 - Bregion
% せん断速度 (1/s)            spf.sr*spf.mu (Pa)
35860.89086566551        54.82300687897697
