% Model:              20230907_silksimulation_70kPa.mph
% Version:            COMSOL 6.1.0.357
% Date:               Oct 7 2023, 16:29
% Table:              テーブル 3 - Cregion
% せん断速度 (1/s)            spf.sr*spf.mu (Pa)
60889.908506810236       85.80356755580245
