% Model:              20230907_silksimulation_70kPa1.mph
% Version:            COMSOL 6.1.0.357
% Date:               Oct 6 2023, 19:56
% Dimension:          3
% Nodes:              6683
% Expressions:        1
% Description:        サーフェス
% x                       y                        z                        sqrt((ux^2+vy^2+wz^2))
-4132.601771309903        6000                     2.764386146159211        1403.7310041266269
-4132.601771309903        6000                     3.1                      1574.1457203575364
-4132.100759278386        6000                     3.1000000000000005       1525.7463638222077
-4132.100759278386        6000                     0.3439358219746913       126.26332194479892
-4132.601771309903        6000                     0                        0.022110747564475848
-4132.100759278386        6000                     0                        0.023016608720533217
-4132.601771309904        6000                     5.864386146157331        2808.952451847883
-4132.601771309904        6000                     6.2                      2958.8620126144597
-4132.100759278384        6000                     6.2                      2873.1761142244586
-4132.100759278386        6000                     3.4439358219748115       1642.0867446920038
-4132.601771309904        6000                     8.964386146156048        4024.746871427597
-4132.601771309904        6000                     9.299999999999999        4154.148877112165
-4132.100759278383        6000                     9.3                      4042.2892515961244
-4132.1007592783835       6000                     6.543935821976852        2979.6132058604985
-4132.601771309904        6000                     12.064386146156048       5051.111863251163
-4132.601771309903        6000                     12.400000000000002       5160.006313853384
-4132.100759278383        6000                     12.4                     5033.085775933833
-4132.100759278383        6000                     9.643935821977692        4138.823053992609
-4132.601771309904        6000                     15.164386146154284       5888.047427358352
-4132.6017713099045       6000                     15.5                     5976.434322883583
-4132.10075927838         6000                     15.5                     5845.565687280125
-4132.100759278382        6000                     12.743935821977812       5119.716289094666
-4136.7286307579525       6000                     0.2670173232666731       135.59846343379076
-4136.7286307579525       6000.000000000001        3.100000000000001        1972.7997584259474
-4136.728630757953        6000                     0                        0.01502177165518457
-4136.7286307579525       6000                     3.3670173232679406       2092.0691187036537
-4136.72863075795         6000                     6.200000000000002        3664.636844114847
-4136.72863075795         6000                     6.467017323268928        3767.5902138514534
-4136.728630757947        6000                     9.299999999999999        5075.511257212032
-4136.728630757947        6000                     9.567017323271795        5162.148636408207
-4136.728630757947        6000                     12.400000000000004       6205.422997726835
-4136.728630757946        6000                     12.667017323271985       6275.744386385283
-4136.728630757944        6000                     15.5                     7054.372065686647
-4137.117604325917        6000                     2.8394526062636407       1841.4114216476944
-4137.117604325917        6000                     3.100000000000001        2010.3734718261976
-4137.117604325916        6000                     0                        0.014349883016154908
-4137.117604325916        6000.000000000001        5.939452606262499        3586.53260725536
-4137.117604325916        6000                     6.200000000000002        3731.1571630332787
-4137.1176043259175       6000                     9.03945260625951         5042.065219710792
-4137.1176043259175       6000                     9.299999999999999        5162.351073748503
-4137.117604325917        6000                     12.139452606259338       6208.008051683468
-4137.117604325917        6000                     12.400000000000004       6303.955203980145
-4137.1176043259175       6000                     15.239452606257316       7084.361103197273
-4137.1176043259175       6000                     15.5                     7155.969553755602
-4141.356772793955        6000.000000000001        0.1899864671615069       123.21150482000256
-4141.3567727939535       6000                     3.1                      2419.8516514204684
-4141.356772793955        6000.000000000001        0                        0.0074207666399536566
-4141.3567727939535       6000                     3.2899864671625867       2525.3092728652837
-4141.356772793951        6000                     6.2                      4456.095715979228
-4141.356772793951        6000                     6.389986467164748        4543.805994445005
-4141.356772793949        6000.000000000001        9.299999999999999        6108.732193710244
-4141.356772793949        6000                     9.489986467165826        6178.695129196774
-4141.356772793945        6000                     12.4                     7377.761084617693
-4141.356772793945        6000                     12.589986467167922       7429.976677126652
-4141.356772793943        6000                     15.5                     8263.182388710879
-4141.63353910657         6000                     2.914623452681359        2300.2853534311903
-4141.63353910657         6000                     3.1                      2446.584849143396
-4141.633539106571        6000.000000000001        0                        0.006967054628711861
-4141.63353910657         6000                     6.014623452679313        4380.429962134857
-4141.63353910657         6000                     6.2                      4503.424085073063
-4141.63353910657         6000.000000000001        9.114623452678195        6070.829373957059
-4141.63353910657         6000.000000000001        9.299999999999999        6170.5177078164
-4141.63353910657         6000                     12.21462345267609        7371.4831725968015
-4141.63353910657         6000                     12.4                     7447.865717377597
-4141.633539106572        6000                     15.31462345267299        8282.3913580623
-4141.633539106572        6000                     15.5                     8335.46811376481
-4145.985185400748        6000                     0.11284324769522668      89.05634206915899
-4145.985185400745        6000.000000000001        3.1                      2866.9022522281452
-4145.985185400748        6000.000000000001        0                        2.534153867298575E-4
-4145.985185400745        6000                     3.2128432476973874       2941.7717892900637
-4145.985185400742        6000                     6.2                      5247.55307243315
-4145.985185400742        6000                     6.312843247699548        5308.235804488318
-4145.985185400738        6000.000000000001        9.299999999999999        7141.952460616668
-4145.985185400738        6000.000000000001        9.412843247701707        7188.44838766466
-4145.985185400737        6000                     12.4                     8550.100416778763
-4145.985185400737        6000                     12.51284324770387        8582.409538819347
-4145.985185400732        6000                     15.5                     9471.996940919824
-4146.149575646597        6000.000000000001        2.98989868001017         2780.3957102849376
-4146.149575646598        6000.000000000001        3.1                      2882.7799481657753
-4146.149575646598        6000.000000000001        0                        0
-4146.149575646597        6000.000000000001        6.089898680008063        5190.677720702876
-4146.149575646597        6000.000000000001        6.2                      5275.66292181361
-4146.149575646597        6000.000000000001        9.189898680005916        7111.062756603931
-4146.149575646597        6000                     9.299999999999999        7178.648920943911
-4146.149575646598        6000.000000000001        12.289898680003809       8541.550817987885
-4146.149575646598        6000                     12.4                     8591.73794555639
-4146.149575646599        6000                     15.389898680000684       9482.141904854649
-4146.149575646599        6000                     15.5                     9514.929995651393
-4132.601771309903        6000                     18.264386146155935       6544.145574945871
-4132.601771309902        6000                     18.6                     6613.0678602017315
-4132.100759278382        6000                     18.6                     6475.193167554897
-4132.10075927838         6000                     15.843935821979493       5909.190914747032
-4132.601771309903        6000                     21.364386146155223       7052.89423438996
-4132.601771309904        6000                     21.700000000000003       7106.290816682226
-4132.100759278381        6000                     21.700000000000003       6963.136876830382
-4132.100759278382        6000                     18.943935821977696       6524.634540009656
-4132.601771309903        6000                     24.464386146155938       7418.232312882418
-4132.601771309903        6000                     24.8                     7456.103192209506
-4132.100759278381        6000                     24.8                     7309.396814992004
-4132.100759278381        6000                     22.043935821978533       6998.3943941700345
-4132.601771309903        6000                     27.564386146155936       7640.1598104185305
-4132.601771309902        6000                     27.900000000000002       7662.504986779814
-4132.100759278381        6000                     27.900000000000002       7513.9729820346965
-4132.100759278381        6000                     25.143935821977692       7330.47047721555
-4132.601771309901        6000                     30.664386146158044       7718.676726993853
-4132.601771309901        6000                     31                       7725.496200389304
-4132.100759278383        6000                     31                       7576.86537795559
-4132.100759278381        6000                     28.243935821977573       7520.862789141973
-4136.728630757944        6000                     15.76701732327377        7109.207239769303
-4136.728630757946        6000                     18.600000000000005       7748.713931689492
-4136.728630757946        6000                     18.867017323271          7791.1967205021065
-4136.728630757945        6000                     21.700000000000003       8285.421525020502
-4136.728630757945        6000                     21.967017323272973       8315.551928494879
-4136.728630757945        6000                     24.800000000000008       8664.494845607293
-4136.728630757945        6000                     25.06701732327279        8682.272863742523
-4136.728630757947        6000                     27.900000000000006       8885.933893444964
-4136.728630757946        6000                     28.167017323271892       8891.359526240865
-4136.728630757946        6000                     31                       8949.738668534046
-4137.117604325915        6000                     18.339452606260128       7796.936742797597
-4137.117604325915        6000.000000000001        18.600000000000005       7855.750551139811
-4137.1176043259175       6000                     21.43945260625837        8351.104059933561
-4137.1176043259175       6000                     21.700000000000003       8396.55666537739
-4137.117604325917        6000                     24.539452606258287       8746.296493852053
-4137.117604325917        6000                     24.800000000000004       8778.387896396533
-4137.117604325917        6000                     27.639452606259255       8982.514044548234
-4137.117604325917        6000                     27.900000000000006       9001.244244193033
-4137.117604325915        6000.000000000001        30.7394526062603         9059.75671202282
-4137.117604325915        6000.000000000001        31                       9065.125708767919
-4141.356772793943        6000                     15.689986467170831       8306.068358519015
-4141.356772793944        6000                     18.6                     9022.239501211216
-4141.356772793944        6000                     18.78998646716887        9055.382722518774
-4141.3567727939435       6000                     21.7                     9607.711672631147
-4141.3567727939435       6000                     21.889986467169884       9631.112145414216
-4141.356772793945        6000                     24.8                     10019.598902945836
-4141.356772793945        6000                     24.989986467168805       10033.256627203977
-4141.356772793945        6000                     27.900000000000006       10257.901192153007
-4141.356772793944        6000                     28.089986467168806       10261.81616788622
-4141.356772793945        6000                     31                       10322.618540252828
-4141.63353910657         6000                     18.414623452674846       9052.773784341978
-4141.63353910657         6000                     18.6                     9098.39515692825
-4141.633539106571        6000                     21.514623452673856       9651.599083104942
-4141.633539106571        6000                     21.7                     9686.783420461572
-4141.633539106571        6000                     24.614623452674845       10075.885602214244
-4141.633539106571        6000                     24.8                     10100.632904340788
-4141.633539106571        6000                     27.71462345267485        10325.633341668432
-4141.633539106571        6000                     27.900000000000002       10339.943608564947
-4141.63353910657         6000                     30.814623452675963       10400.842301467024
-4141.63353910657         6000                     31                       10404.715533133502
-4145.985185400732        6000                     15.61284324770699        9499.767788535788
-4145.985185400735        6000                     18.6                     10295.770168187666
-4145.985185400735        6000                     18.71284324770491        10317.18773666078
-4145.985185400733        6000                     21.700000000000003       10930.007615477987
-4145.985185400733        6000                     21.812843247705953       10945.07190480808
-4145.985185400735        6000                     24.8                     11374.709282793583
-4145.985185400735        6000.000000000001        24.91284324770483        11383.420292980321
-4145.985185400737        6000                     27.900000000000002       11629.875170132049
-4145.985185400737        6000                     28.012843247703792       11632.232901175505
-4145.985185400736        6000                     31                       11695.505277493892
-4146.149575646598        6000                     18.489898680002643       10311.663030290669
-4146.149575646598        6000                     18.6                     10341.00173591209
-4146.149575646598        6000                     21.589898680001667       10954.384125486347
-4146.149575646598        6000                     21.700000000000003       10976.971172918702
-4146.149575646598        6000                     24.68989868000268        11407.002917429876
-4146.149575646598        6000                     24.8                     11422.838306672675
-4146.149575646598        6000                     27.7898986800037         11669.519406119132
-4146.149575646598        6000                     27.900000000000002       11678.603137172533
-4146.149575646597        6000                     30.889898680003736       11741.933591555156
-4146.149575646597        6000                     31                       11744.265664419287
-4110.023084031307        5999.999999999999        2.39252355558522         376.8119393124024
-4110.023084031307        5999.999999999999        3.0999999999999996       488.2327328148957
-4108.967385826326        6000                     3.1                      455.09175890053734
-4108.967385826325        6000                     0.7247449231296129       81.00061720700445
-4110.023084031308        6000                     0                        0.0010725954220232616
-4108.967385826325        6000                     0                        0.0022910174638384223
-4110.023084031307        5999.999999999999        5.492523555585461        837.1106926363375
-4110.023084031307        5999.999999999999        6.199999999999999        940.2719128899189
-4108.967385826325        6000                     6.2                      877.2258685607587
-4108.967385826326        6000                     3.824744923128786        530.8660323755412
-4110.023084031307        5999.999999999999        8.59252355558546         1261.216129604011
-4110.023084031307        5999.999999999999        9.299999999999999        1356.1175402349522
-4108.967385826325        6000                     9.299999999999999        1266.4023290185073
-4108.967385826325        6000                     6.924744923128531        947.774628518436
-4110.023084031307        5999.999999999999        11.69252355558546        1649.1280138563072
-4110.023084031306        6000                     12.399999999999999       1735.769614868835
-4108.967385826325        6000                     12.399999999999999       1622.6211402874171
-4108.967385826325        6000                     10.024744923128532       1331.7255754585992
-4110.023084031306        6000                     14.792523555586513       2000.8463454147009
-4110.023084031306        6000                     15.499999999999996       2079.228136813663
-4108.967385826326        6000                     15.499999999999996       1945.8823023866526
-4108.967385826325        6000                     13.12474492312853        1682.7188732126374
-4113.593318282114        6000.000000000001        0.6490348219802966       102.21855601526394
-4113.593318282115        6000.000000000001        3.1                      600.3063570704172
-4113.593318282114        6000                     0                        0.0017607471000326363
-4113.593318282115        6000.000000000001        3.749034821979443        694.9458673340741
-4113.593318282114        6000.000000000001        6.2                      1153.4762281990486
-4113.593318282114        6000.000000000001        6.849034821979443        1240.538236610399
-4113.593318282114        6000.000000000001        9.299999999999999        1659.5096134170722
-4113.5933182821145       6000                     9.949034821979216        1738.9941199799941
-4113.5933182821145       6000                     12.4                     2118.406512745502
-4113.5933182821145       6000                     13.049034821979216       2190.313517464524
-4113.593318282114        6000                     15.499999999999996       2530.1669262092482
-4114.538754902416        6000                     2.4664519740701643       501.23700126309905
-4114.538754902416        6000.000000000001        3.1                      629.983539070013
-4114.538754902416        6000                     0                        0.0019567222999541493
-4114.538754902415        6000.000000000001        5.5664519740705956       1091.4111937215932
-4114.538754902415        6000.000000000001        6.2                      1209.93290588406
-4114.538754902415        6000.000000000001        8.666451974070593        1631.551617023181
-4114.538754902415        6000                     9.299999999999999        1739.8481004789105
-4114.538754902415        6000                     11.76645197407038        2121.6578681227484
-4114.538754902415        6000                     12.4                     2219.729122876126
-4114.538754902416        6000.000000000001        14.866451974069538       2561.729947045308
-4114.538754902416        6000                     15.499999999999996       2649.5759731016715
-4118.219521105842        6000                     0.5732117935828951       116.49813882689276
-4118.219521105844        6000                     3.0999999999999996       745.5176153524366
-4118.219521105842        6000                     0                        0.012835687360638262
-4118.219521105844        6000                     3.6732117935820146       852.7518587350037
-4118.219521105842        6000                     6.2                      1429.720328734711
-4118.219521105842        6000                     6.773211793583094        1527.7031476841094
-4118.219521105842        6000                     9.299999999999999        2052.608140417555
-4118.219521105842        6000                     9.873211793583094        2141.3395349375555
-4118.219521105843        6000                     12.4                     2614.1810503951274
-4118.219521105843        6000                     12.973211793582013       2693.66102049035
-4118.219521105843        6000                     15.499999999999996       3114.439058689406
-4119.054526650441        6000                     2.5404854273950566       632.4445678313962
-4119.054526650441        6000                     3.1                      771.7262709135862
-4119.054526650441        6000                     0                        0.015300668306088387
-4119.054526650441        6000                     5.640485427394192        1351.822373300532
-4119.054526650441        6000                     6.199999999999999        1479.5786388841402
-4119.054526650441        6000                     8.74048542739419         2007.3290381535562
-4119.054526650441        6000                     9.299999999999999        2123.5571042354077
-4119.054526650441        6000                     11.840485427394865       2598.9618003774463
-4119.0545266504405       6000                     12.4                     2703.6616669551477
-4119.0545266504405       6000                     14.940485427395053       3126.720659987249
-4119.054526650441        6000                     15.499999999999996       3219.8923270647374
-4122.845994311937        6000                     0.49727583191142627      123.8236151012994
-4122.845994311938        6000                     3.1                      890.7255591489738
-4122.845994311937        6000                     0                        0.035195350631564724
-4122.845994311938        6000                     3.59727583191052         1004.2705968662106
-4122.845994311937        6000                     6.2                      1705.9582185418021
-4122.845994311937        6000                     6.697275831910693        1809.2574194599074
-4122.845994311937        6000                     9.299999999999999        2445.697979378405
-4122.845994311937        6000                     9.797275831911426        2538.7513434955135
-4122.845994311938        6000                     12.4                     3109.9448415109878
-4122.845994311938        6000                     12.89727583191052        3192.7523688301408
-4122.845994311937        6000                     15.5                     3698.698804934531
-4123.570399270131        6000                     2.6146239100932283       681.1194991002396
-4123.570399270132        6000                     3.0999999999999996       807.550616114027
-4123.570399270132        6000                     0                        0.03899674846890818
-4123.570399270131        6000                     5.714623910093393        1460.489965224476
-4123.570399270131        6000                     6.199999999999999        1581.6972952233043
-4123.570399270132        6000                     8.814623910092504        2206.462602208233
-4123.570399270132        6000                     9.299999999999999        2322.440038916182
-4123.570399270132        6000                     11.914623910093393       2919.031303595717
-4123.570399270132        6000                     12.399999999999999       3029.7788469788866
-4123.570399270132        6000                     15.014623910092505       3598.196069334028
-4123.570399270132        6000                     15.5                     3703.7137193893386
-4127.4731997730205       6000                     0.4207100383862728       95.2451185993769
-4127.47319977302         6000                     3.1                      1078.695774805151
-4127.4731997730205       6000                     0                        0.03155205827645443
-4127.47319977302         6000                     3.5207100383872065       1175.3947287438375
-4127.47319977302         6000                     6.2                      2081.7210925438994
-4127.47319977302         6000                     6.62071003838814         2179.9001411655327
-4127.473199773018        6000                     9.3                      3009.075954133017
-4127.473199773018        6000                     9.720710038389074        3108.735097403215
-4127.473199773018        6000                     12.4                     3860.760359495688
-4127.473199773018        6000                     12.820710038389073       3961.8995974094687
-4127.473199773019        6000                     15.5                     4636.774308660121
-4128.086035800774        6000.000000000001        2.6894511058899493       987.2107449705466
-4128.086035800774        6000.000000000001        3.1                      1137.9011055995843
-4128.086035800773        6000.000000000001        0                        0.030375240004657033
-4128.086035800774        6000                     5.789451105889035        2047.6646908562655
-4128.086035800775        6000                     6.2                      2186.5377233136282
-4128.086035800775        6000.000000000001        8.88945110588798         3018.85816608504
-4128.086035800775        6000                     9.299999999999999        3145.9098539183638
-4128.086035800775        6000                     11.989451105887841       3900.7871541617997
-4128.086035800775        6000.000000000001        12.4                     4016.0174973641733
-4128.086035800774        6000                     15.089451105888894       4693.451655112917
-4128.086035800774        6000                     15.5                     4796.860653689008
-4132.601771309902        6000                     33.76438614615793        7669.324339872259
-4132.601771309901        6000                     34.1                     7662.5048547900515
-4132.1007592783835       6000                     34.1                     7513.972915630284
-4132.100759278383        6000                     31.343935821975535       7569.975566818207
-4132.601771309901        6000                     36.864386146158274       7478.448155021175
-4132.601771309902        6000                     37.2                     7456.102970786285
-4132.1007592783835       6000                     37.2                     7309.396696984188
-4132.1007592783835       6000                     34.443935821975415       7492.899250896916
-4132.601771309902        6000                     39.96438614615816        7144.161431766069
-4132.601771309902        6000                     40.300000000000004       7106.290548378554
-4132.1007592783835       6000                     40.300000000000004       6963.136722017607
-4132.1007592783835       6000                     37.54393582197553        7274.139178653022
-4132.601771309902        6000                     43.06438614615899        6666.464170111398
-4132.601771309902        6000                     43.400000000000006       6613.067587572033
-4132.100759278385        6000                     43.400000000000006       6475.192990736464
-4132.1007592783835       6000                     40.64393582197554        6913.695350089586
-4132.601771309901        6000                     46.164386146160155       6045.356370069863
-4132.601771309901        6000                     46.5                     5976.434088380171
-4132.100759278385        6000.000000000001        46.50000000000001        5845.565503154605
-4132.100759278385        6000                     43.74393582197446        6411.567765213805
-4136.728630757946        6000                     31.267017323270622       8944.313026440166
-4136.728630757948        6000                     34.10000000000001        8885.9337537545
-4136.728630757948        6000                     34.367017323269735       8868.155729355076
-4136.728630757949        6000                     37.20000000000001        8664.494601425806
-4136.728630757949        6000                     37.46701732326983        8634.364194721033
-4136.728630757949        6000                     40.300000000000004       8285.421211548823
-4136.72863075795         6000                     40.56701732326865        8242.938422539513
-4136.728630757951        6000.000000000001        43.40000000000001        7748.713584126689
-4136.728630757951        6000                     43.66701732326758        7693.878412813873
-4136.728630757951        6000                     46.50000000000001        7054.371719166355
-4137.117604325915        6000                     33.839452606261275       9006.61311024704
-4137.117604325915        6000                     34.10000000000001        9001.244103456864