% Model:              20230907_silksimulation_70kPa1.mph
% Version:            COMSOL 6.1.0.357
% Date:               Oct 6 2023, 19:56
% Dimension:          3
% Nodes:              315
% Expressions:        2
% Description:        せん断速度, 
% Length unit:        µm
% x                       y                        z                        spf.sr (1/s)             spf.sr*spf.mu (Pa)
-4146.149575646598        6000                     6.0898986800078365       5287.205279529358        6.344646335435231
-4132.100759278381        6000                     15.5                     9671.63336198826         11.605960034385912
-4146.149575646599        6000                     15.5                     13456.144973591476       16.147373968309772
-4146.149575646597        6000                     0                        1.4901161193847656E-8    1.7881393432617183E-11
-4132.100759278387        6000.000000000001        9.64393582197414         4539.582050425007        5.447498460510007
-4132.100759278386        6000                     0                        8662.788352390391        10.39534602286847
-4146.149575646598        6000                     21.58989868000204        14694.920573119864       17.633904687743833
-4132.100759278383        6000                     31                       10715.635812728846       12.858762975274615
-4146.149575646597        6000                     31                       16608.90211965858        19.930682543590294
-4132.100759278381        6000                     25.143935821977692       9524.42561462936         11.42931073755523
-4123.570399270132        6000                     5.71462391009245         11512.051046019624       13.814461255223547
-4108.967385826326        6000                     15.499999999999996       7861.249232663622        9.433499079196347
-4123.570399270131        6000                     15.499999999999998       7459.187886746051        8.951025464095261
-4123.570399270132        6000                     0                        13923.417601800491       16.708101122160585
-4108.967385826326        6000                     10.024744923127702       10074.940348711669       12.089928418454
-4108.967385826325        6000                     0                        16658.71129962999        19.99045355955599
-4146.149575646598        6000                     37.08989868000603        15370.1261299922         18.44415135599064
-4132.100759278385        6000                     46.5                     9671.633289010948        11.605959946813137
-4146.149575646597        6000                     46.5                     13456.143935944314       16.147372723133174
-4132.100759278383        5999.999999999999        40.643935821975795       10910.70308379946        13.092843700559351
-4123.570399270129        6000                     31                       7193.497259184723        8.632196711021667
-4123.570399270131        6000                     21.214623910093504       7419.756802119477        8.90370816254337
-4100.992012992219        6000                     15.499999999999996       8046.998809012662        9.656398570815192
-4100.992012992221        6000                     0                        18152.79360620334        21.783352327444007
-4100.992012992221        6000                     5.345031102275508        14646.691409807132       17.57602969176856
-4085.849836972722        6000                     15.499999999999996       8061.111965117165        9.673334358140597
-4085.849836972722        6000                     10.392827214664544       11346.011620114323       13.615213944137185
-4085.849836972722        6000                     0                        18155.530338042776       21.786636405651326
-4078.4091620573927       6000                     4.990768447690028        14882.312657584855       17.858775189101827
-4062.7557057690938       6000.000000000001        15.499999999999996       7696.271734780761        9.235526081736914
-4078.4091620573927       6000                     15.499999999999996       8048.4782011443385       9.658173841373205
-4078.4091620573936       6000                     0                        18156.858556277868       21.788230267533436
-4062.7557057690938       6000                     10.740183405319742       10752.528024421872       12.903033629306247
-4062.755705769093        6000                     0                        15229.414033481837       18.275296840178203
-4055.8188694238243       6000.000000000001        4.65792659888636         11964.157133164914       14.356988559797895
-4039.677036948222        6000                     15.5                     11723.838716041762       14.068606459250114
-4055.818869423823        6000                     15.499999999999996       7460.0521410443525       8.952062569253222
-4055.8188694238243       6000                     0                        13931.8946362897         16.718273563547637
-4039.677036948223        6000                     11.07595286795393        13595.61989506655        16.31474387407986
-4039.6770369482206       5999.999999999999        0                        3976.6372441350586       4.77196469296207
-4146.149575646598        6000                     52.58989868001088        8168.939046564399        9.802726855877278
-4132.100759278389        6000                     61.99999999999999        8662.787264407323        10.395344717288788
-4146.149575646597        6000                     61.999999999999986       1.4901161193847656E-8    1.7881393432617183E-11
-4132.100759278386        6000                     56.14393582197242        13746.978772589133       16.496374527106962
-4123.570399270129        6000                     46.5                     7459.188141361441        8.951025769633729
-4123.570399270129        6000                     36.714623910094836       7337.310994511684        8.804773193414018
-4055.818869423823        6000                     20.157926598887727       7440.644446370593        8.92877333564471
-4039.677036948222        6000                     31                       13908.944415077265       16.690733298092717
-4055.8188694238224       6000                     31                       7246.612339442069        8.695934807330483
-4039.6770369482215       6000                     26.575952867954392       13999.61771385695        16.799541256628338
-4033.2300000000114       6000                     15.500000000000002       13461.467663722182       16.153761196466615
-4033.2300000000114       6000                     0                        1.4901161193847656E-8    1.7881393432617186E-11
-4033.2300000000114       6000                     4.331074432896797        3761.7422730209228       4.514090727625106
-4123.570399270128        6000                     52.214623910095895       9794.50367190483         11.753404406285792
-4108.967385826329        6000                     62                       16658.71002688355        19.99045203226026
-4123.570399270127        6000                     62                       13923.415948336622       16.708099138003945
-4108.967385826329        6000                     56.52474492312383        14378.991931618955       17.254790317942742
-4108.967385826328        6000                     46.5                     7861.249695933966        9.433499635120757
-4055.8188694238224       6000                     35.657926598888785       7313.64858785329         8.776378305423947
-4039.6770369482206       6000                     46.499999999999986       11723.838882751928       14.068606659302311
-4055.8188694238215       6000.000000000001        46.5                     7460.052323361999        8.952062788034398
-4039.677036948221        6000.000000000001        42.07595286795531        11655.12100228256        13.98614520273907
-4033.2300000000114       5999.999999999999        30.999999999999996       16615.610366090244       19.938732439308293
-4033.2300000000114       6000                     19.83107443289726        14342.868032868584       17.211441639442302
-4100.992012992215        6000                     62                       18152.792558024514       21.783351069629415
-4100.9920129922175       6000.000000000001        46.5                     8046.999305731883        9.65639916687826
-4100.992012992217        6000                     51.84503110228147        11492.168413064215       13.790602095677055
-4085.849836972725        6000.000000000001        62.00000000000001        18155.529365770573       21.786635238924685
-4085.849836972724        6000                     56.89282721466312        14809.813411679213       17.771776094015053
-4085.849836972724        6000                     46.5                     8061.112753935599        9.673335304722716
-4078.4091620573927       6000.000000000001        51.490768447691735       11262.116254946057       13.514539505935268
-4062.7557057690956       6000                     62                       15229.413457786159       18.27529614934339
-4078.4091620573927       6000.000000000001        62                       18156.85756370111        21.788229076441326
-4078.4091620573927       6000                     46.5                     8048.479006210857        9.658174807453028
-4062.7557057690956       6000                     57.24018340531619        12102.344115572756       14.522812938687306
-4062.7557057690947       6000                     46.5                     7696.272099319891        9.23552651918387
-4055.8188694238206       6000                     51.15792659889015        9351.753327580358        11.222103993096429
-4039.677036948222        6000                     62                       3976.6370363935944       4.771964443672313
-4055.81886942382         6000                     62                       13931.894117329972       16.71827294079597
-4039.677036948222        6000                     57.57595286795347        2082.9006714216794       2.4994808057060154
-4033.230000000013        6000                     46.49999999999999        13461.46768339997        16.153761220079964
-4033.230000000012        6000                     35.33107443289591        15734.20992596867        18.881051911162402
-4033.2300000000114       6000                     62                       1.4901161193847656E-8    1.7881393432617186E-11
-4033.230000000013        6000                     50.83107443289439        9699.72548137148         11.639670577645775
4121.138094429105         6000                     6.196910151159779        13083.364411674065       15.700037294008876
4130.763099910517         6000                     15.499999999999996       8205.874293323785        9.84704915198854
4121.138094429105         6000                     15.499999999999996       7836.123305211504        9.403347966253804
4121.138094429104         6000                     0                        14413.159728486104       17.295791674183324
4130.763099910517         6000                     7.32542933878301         9891.931703406966        11.870318044088359
4130.763099910518         6000                     0                        11476.432036777498       13.771718444132997
4141.504049386933         6000                     10.404415414761493       12974.516232736332       15.569419479283596
4146.764842039905         6000                     15.5                     13707.950674055151       16.449540808866182
4141.504049386933         6000                     15.499999999999998       11890.757029716022       14.268908435659224
4141.504049386945         6000                     0                        3772.721094763663        4.527265313716396
4146.764842039905         6000                     4.0043783042730094       3541.0790516914967       4.249294862029796
4146.764842039905         6000                     0                        1.4901161193847656E-8    1.7881393432617186E-11
4141.504049386933         6000                     25.904415414761036       14008.174263733606       16.809809116480327
4146.7648420399055        6000                     31                       16822.062297197608       20.18647475663713
4141.504049386933         6000                     31.000000000000007       14438.460835020382       17.32615300202446
4146.764842039905         6000                     19.50437830428295        14512.405395439917       17.414886474527897
4100.770494185839         6000                     2.0486610482362266       16927.55087608345        20.31306105130014
4114.72728107836          6000.000000000001        15.499999999999996       7590.000438143772        9.108000525772525
4100.770494185841         6000                     15.499999999999996       8052.995454454864        9.663594545345838
4100.770494185839         6000.000000000001        0                        18096.330589323235       21.715596707187878
4114.72728107836          6000                     10.621563617921398       10298.09138703969        12.357709664447627
4114.72728107836          6000.000000000001        0                        16369.512549984203       19.64341505998104
4141.504049386933         6000.000000000001        41.40441541476057        12348.044995748241       14.817653994897888
4146.7648420399055        6000                     46.5                     13707.950577607484       16.44954069312898
4141.504049386932         6000                     46.5                     11890.757239959783       14.26890868795174
4146.7648420399055        6000.000000000001        35.00437830428402        16017.607459451647       19.221128951341978
4130.763099910517         6000                     22.825429338781397       8904.851999751798        10.685822399702156
4130.763099910517         6000                     31                       9593.71484160822         11.512457809929865
4098.645038581186         6000                     13.88271457350171        9138.325041749198        10.965990050099036
4098.645038581186         6000                     15.499999999999996       8124.224934962412        9.749069921954893
4098.645038581188         6000                     0                        18359.36203159309        22.031234437911706
4121.138094429105         6000                     52.696910151162186       9084.749067681789        10.901698881218145
4130.763099910515         6000                     62                       11476.43136339949        13.771717636079384
4121.138094429106         6000                     62                       14413.159115836432       17.295790939003716
4121.138094429105         6000                     46.5                     7836.123947948945        9.403348737538733
4130.763099910515         6000                     53.82542933877818        9708.49352206073         11.650192226472875
4130.763099910515         6000                     46.5                     8205.87467633505         9.847049611602058
4141.504049386945         6000                     56.904415414773645       2661.960784257448        3.194352941108937
4146.764842039905         6000                     62                       1.4901161193847656E-8    1.7881393432617186E-11
4141.504049386945         6000                     62                       3772.7208456668563       4.527265014800227
4146.7648420399055        6000                     50.50437830428069        10166.87164228507        12.200245970742085
4130.763099910516         6000                     38.325429338779784       8976.61827622716         10.771941931472593
4080.402025103556         6000                     13.475518696720805       9165.340338295882        10.998408405955056
4082.514330893619         6000                     15.499999999999996       8134.780743235301        9.76173689188236
4080.402025103556         6000                     15.499999999999996       8064.6904607409415       9.677628552889129
4080.402025103556         6000                     0                        18133.777447172994       21.760532936607593
4082.5143308936176        5999.999999999999        1.6074920682497982       17317.900717128916       20.7814808605547
4082.5143308936176        5999.999999999999        0                        18387.28589366494        22.064743072397924
4090.5562084990956        6000                     15.499999999999996       8132.833374074863        9.759400048889834
4090.5562084990925        6000                     7.7273791978686415       13242.478310226354       15.890973972271622
4090.556208499099         6000                     0                        18373.373295012985       22.048047954015583
4060.030347739528         6000                     9.459259589111957        9089.374790252421        10.907249748302903
4066.342971177306         6000                     15.499999999999996       7602.08869020636         9.122506428247632
4060.030347739528         6000                     15.499999999999996       7824.079164733898        9.388894997680678
4060.030347739528         6000                     0                        14546.715270611803       17.456058324734162
4066.342971177306         6000                     4.802728410433672        13681.363961669584       16.417636754003503
4066.342971177307         6000                     0                        16446.362659448438       19.735635191338122
4039.651735472796         6000                     5.462426110860372        2840.7629634569853       3.408915556148382
4050.1465200457314        6000                     15.499999999999996       8171.169442406289        9.805403330887545
4039.651735472788         6000                     15.499999999999998       11746.990310988987       14.096388373186784
4039.6517354727966        6000                     0                        4078.6087689240403       4.894330522708849
4050.1465200457314        6000                     7.981617843269894        9778.938742792081        11.734726491350495
4050.1465200457333        6000                     0                        11572.226854022472       13.886672224826967
4100.770494185843         6000                     48.54866104824175        9158.84711295502         10.990616535546025
4114.727281078356         6000.000000000001        62.00000000000001        16369.511850165698       19.643414220198835
4100.770494185843         6000                     62                       18096.330420122857       21.715596504147424
4100.770494185844         6000                     46.5                     8052.996378122326        9.663595653746789
4114.727281078357         6000.000000000001        57.12156361791936        13580.736853617862       16.296884224341433
4114.727281078357         6000                     46.5                     7590.00108240917         9.108001298891002
4039.6517354727875        6000                     20.962426110852643       12222.065743459203       14.66647889215104
4050.146520045729         6000                     31                       9515.531705083178        11.418638046099813
4039.651735472791         6000                     31                       14240.327726165728       17.08839327139887
4050.1465200457296        6000                     23.481617843268268       8903.364463834256        10.684037356601106
4033.9400000000123        6000                     11.156770758280063       9866.973698152033        11.840368437782441
4033.940000000012         6000                     15.5                     13708.586962022266       16.45030435442672
4033.940000000012         6000                     0                        1.4901161193847656E-8    1.7881393432617186E-11
4098.645038581186         6000                     60.38271457349928        17285.034065918502       20.7420408791022
4098.645038581186         6000                     62.00000000000001        18359.36199755663        22.03123439706795
4098.645038581186         6000                     46.5                     8124.225230121995        9.749070276146394
4039.6517354727907        6000                     36.46242611085608        13794.316269541861       16.553179523450233
4050.146520045727         6000                     46.5                     8171.169686221535        9.805403623465843
4039.6517354727916        6000                     46.5                     11746.990831446246       14.096388997735495
4050.146520045728         6000                     38.98161784326718        8865.51918738286         10.638623024859433
4033.940000000012         5999.999999999999        26.656770758280274       15951.886639803248       19.142263967763895
4033.9400000000123        6000                     31                       16825.278827643226       20.190334593171862
4080.4020251035563        6000                     59.97551869672248        16970.5800948474         20.364696113816876
4082.5143308936176        5999.999999999999        62                       18387.286774565066       22.06474412947808
4080.402025103556         6000                     62                       18133.77834799144        21.76053401758973
4080.402025103556         5999.999999999999        46.5                     8064.691017492205        9.677629220990644
4082.514330893619         6000                     48.10749206825063        9144.24137091479         10.973089645097746
4082.514330893619         6000                     46.5                     8134.781790466975        9.761738148560369
4090.556208499087         6000                     62                       18373.373700746743       22.04804844089609
4090.5562084990906        6000                     54.22737919786613        13203.677083324981       15.844412499989975
4090.5562084990906        6000                     46.5                     8132.834013327108        9.759400815992528
4060.030347739529         6000                     55.959259589115575       13200.547208948743       15.84065665073849
4066.342971177305         6000                     62                       16446.36343584795        19.735636123017535
4060.0303477395296        6000                     62                       14546.715965464578       17.456059158557494
4060.030347739529         6000                     46.5                     7824.07946141248         9.388895353694974
4066.342971177305         6000                     51.30272841043269        10287.058522192141       12.344470226630568
4066.342971177306         6000                     46.5                     7602.089188918217        9.122507026701859
4039.651735472791         6000                     51.96242611085608        12955.77268918954        15.546927227027446
4050.146520045726         6000                     62                       11572.227323975541       13.88667278877065
4039.651735472795         6000                     62                       4078.608814119237        4.8943305769430845
4050.146520045727         6000                     54.48161784326609        9882.275702996041        11.85873084359525
4033.9400000000132        6000                     42.156770758279094       14581.979626131777       17.49837555135813
4033.940000000013         5999.999999999999        46.49999999999999        13708.587434698748       16.450304921638494
4033.9400000000114        6000                     57.656770758274696       3841.6132602970497       4.609935912356459
4033.940000000013         6000                     61.99999999999999        1.4901161193847656E-8    1.788139343261719E-11
-4108.967385826327        6000                     31                       3801.707242104536        4.562048690525443
-4108.967385826327        6000                     25.524744923127006       3912.352788990789        4.694823346788946
-4108.967385826328        6000                     41.02474492312523        7816.631772116663        9.379958126539995
-4100.992012992218        6000.000000000001        31                       1974.8725491886437       2.3698470590263723
-4100.992012992218        6000                     20.845031102278305       5992.961138619847        7.191553366343815
-4085.849836972724        6000.000000000001        31                       2058.43609359415         2.47012331231298
-4085.849836972723        6000                     25.892827214664187       4054.6500589864995       4.8655800707838
-4078.4091620573927       6000.000000000001        20.490768447690705       6132.075660468897        7.358490792562677
-4062.7557057690947       6000.000000000001        31                       5637.965550109057        6.765558660130869
-4078.4091620573936       6000.000000000001        31.000000000000004       1939.0933940401853       2.3269120728482218
-4062.7557057690938       6000                     26.240183405318668       7546.793100220924        9.056151720265108
-4100.992012992218        6000                     36.345031102279364       4089.84306451858         4.907811677422296
-4085.849836972724        6000.000000000001        41.392827214663484       6125.71535986703         7.350858431840435
-4078.4091620573927       6000                     35.990768447691046       3945.7275138249515       4.734873016589941
-4062.7557057690947       6000                     41.74018340531726        5858.2579295812175       7.02990951549746
4121.138094429106         6000                     21.696910151160047       8438.246038136043        10.12589524576325
4121.138094429105         6000                     31                       6709.338307014408        8.051205968417289
4121.138094429106         6000                     37.19691015116193        6188.3857955829035       7.426062954699484
4100.77049418584          6000.000000000001        17.5486610482389         7739.344177650302        9.287213013180363
4114.727281078357         6000                     31                       4816.681203094219        5.780017443713061
4100.770494185843         6000.000000000001        31                       1892.809656205269        2.2713715874463225
4114.727281078358         6000                     26.121563617920344       5707.3473448111945       6.848816813773432
4100.770494185843         6000.000000000001        33.04866104824024        2269.390180351834        2.7232682164222
4114.727281078357         6000                     41.6215636179204         6769.075862044371        8.122891034453245
4098.645038581187         6000.000000000001        29.382714573500547       2175.5743044503683       2.6106891653404416
4098.645038581187         6000.000000000001        31                       1475.5641516686464       1.7706769820023758
4098.645038581186         6000                     44.882714573499605       7484.442428419681        8.981330914103616
4080.4020251035554        6000                     28.975518696722137       2185.760126099307        2.622912151319169
4082.5143308936176        5999.999999999999        31                       1389.3611191807745       1.6672333430169295
4080.402025103556         6000                     31                       1800.2450807432765       2.1602940968919317
4082.514330893619         6000                     17.107492068250632       7488.983347602603        8.986780017123124
4090.5562084990906        6000                     31                       1463.9803773863894       1.756776452863667
4090.556208499094         6000                     23.227379197868654       4862.23013082189         5.834676156986268
4060.030347739528         6000                     24.95925958911299        6083.038591731237        7.299646310077485
4066.342971177306         6000                     31                       4713.565998583505        5.656279198300206
4060.0303477395287        6000                     31                       6573.609042288444        7.888330850746132
4066.342971177306         6000                     20.302728410433346       6762.356475118377        8.11482777014205
4080.402025103556         6000                     44.47551869672115        7741.723904978068        9.29006868597368
4082.5143308936176        5999.999999999999        32.6074920682498         2095.08448998348         2.514101387980176
4090.556208499087         6000                     38.727379197863584       4794.6354089706265       5.753562490764751
4060.0303477395287        6000                     40.45925958911454        8395.52278876032         10.074627346512383
4066.342971177306         6000                     35.80272841043302        5633.32799231951         6.75999359078341
22.50089571417227         6000                     1.6598760239827683       33449.75851615643        40.14307405102644
40.35999999998603         6000                     15.5                     29750.1222514072         35.70107337544776
40.35999999998603         6000                     1.661554044840844        3189.125049575117        3.8270491520889798
22.50089571417227         6000                     0                        30263.854197434786       36.319889876036285
40.35999999998604         6000                     0                        1.4901161193847656E-8    1.788155885308834E-11
20.35902250146645         6000                     0                        33893.45907683554        40.67580979778563
20.35902250146645         6000                     1.659695530227174        31841.392308494113       38.21312783534309
20.35902250146645         6000                     15.499999999999996       14890.708217342188       17.87066227122119
22.50089571417227         6000                     15.499999999999996       16217.529261013395       19.462721875814523
22.50089571417227         6000                     17.159876023982765       17111.21790400563        20.535191999560105
40.35999999998603         6000                     31.000000000000007       36720.641472480245       44.06594439164675