% Model:              20230907_silksimulation_70kPa1.mph
% Version:            COMSOL 6.1.0.357
% Date:               Oct 6 2023, 19:56
% Dimension:          3
% Nodes:              8620
% Expressions:        1
% Description:        サーフェス
% x                       y                        z                        sqrt((ux^2+vy^2+wz^2))
-75.219295476671          1960                     1.6369200948116673       267.35624806034684
-75.21929547667065        1960                     2.583333333333333        400.78054972905375
-74.31307241607497        1960                     2.583333333333333        341.17772645285436
-74.31307241607459        1960                     1.1071501381094206       137.08084877286143
-75.21929547667156        1960                     0                        34.93953435153481
-74.3130724160743         1960                     0                        39.72127962847354
-75.21929547667006        1959.9999999999998       4.22025342814664         648.5429113370918
-75.2192954766696         1959.9999999999998       5.166666666666666        785.925727075765
-74.31307241607571        1960                     5.166666666666666        672.951326951837
-74.31307241607536        1960                     3.6904834714405617       453.52718517244654
-75.21929547666902        1960                     6.803586761481814        1025.227631083008
-75.21929547666868        1960                     7.749999999999998        1158.3543266739803
-74.31307241607624        1960                     7.749999999999998        999.6018777584427
-74.31307241607588        1960                     6.27381680477225         786.2826103951221
-75.2192954766681         1960                     9.386920094816787        1388.9476013694643
-75.21929547666777        1960                     10.333333333333332       1517.785448162383
-74.313072416077          1960                     10.333333333333332       1320.647384342515
-74.31307241607662        1960                     8.857150138103389        1113.6844493142703
-75.21929547666699        1960                     11.970253428152109       1739.6871288597013
-75.21929547666664        1960                     12.916666666666668       1864.2587670343182
-74.31307241607777        1960                     12.916666666666668       1636.0775806551787
-74.31307241607728        1960                     11.440483471434806       1435.4786187017414
-75.21929547666626        1960                     14.553586761486732       2077.535503663571
-75.21929547666592        1960                     15.499999999999996       2197.781843791771
-74.3130724160783         1960                     15.499999999999996       1945.8509558383028
-74.31307241607804        1960                     14.023816804765854       1751.6928695750767
-76.90119385073433        1960                     0.6259116442244723       114.04908654718804
-76.9011938507353         1960                     2.5833333333333335       494.87323794502265
-76.90119385073415        1960                     0                        25.808748566066186
-76.90119385073554        1960                     3.209244977554696        585.7315444298802
-76.90119385073614        1960                     5.166666666666667        966.0255596479047
-76.90119385073632        1960                     5.792578310886068        1054.0690754564375
-76.90119385073669        1960                     7.749999999999998        1414.8120185160747
-76.90119385073689        1960                     8.375911644217934        1500.0190985122422
-76.90119385073766        1960                     10.333333333333334       1841.1478981157943
-76.90119385073783        1960                     10.959244977548813       1923.533515412253
-76.90119385073841        1960                     12.916666666666666       2245.0888841516403
-76.9011938507386         1959.9999999999998       13.542578310880184       2324.67544574371
-76.90119385073916        1960                     15.499999999999996       2626.639461556868
-77.45993046590964        1960                     2.0694420308137915       425.9813816000509
-77.45993046590945        1959.9999999999998       2.5833333333333335       525.9224834531054
-77.45993046591096        1960                     0                        23.36322852839067
-77.45993046590868        1960                     4.652775364148734        927.9801614368757
-77.45993046590849        1960                     5.166666666666667        1025.2210468127837
-77.45993046590795        1960                     7.236108697483247        1406.6087737597238
-77.45993046590775        1960                     7.749999999999998        1499.0081840637365
-77.4599304659067         1959.9999999999998       9.819442030818621        1859.6592791993066
-77.4599304659065         1960                     10.333333333333334       1947.2226997220946
-77.4599304659057         1960                     12.402775364153564       2287.1802055595085
-77.4599304659055         1960                     12.916666666666666       2369.9189720266622
-77.4599304659047         1960                     14.986108697488506       2689.2508095491858
-77.4599304659045         1960                     15.499999999999996       2767.1030281143976
-79.86408496296508        1959.9999999999998       0.005587392986220694     19.04484848568135
-79.86408496296626        1960                     2.5833333333333326       656.8534945467093
-79.86408496296507        1959.9999999999998       0                        17.958217502064564
-79.86408496296625        1960                     2.5889207263168807       657.9107668492396
-79.86408496296684        1960                     5.166666666666665        1274.2755118333096
-79.86408496296683        1960                     5.172254059648875        1275.2801441634635
-79.864084962968          1960                     7.749999999999998        1852.7982512383862
-79.864084962968          1959.9999999999998       7.755587392979536        1853.7503032359573
-79.8640849629686         1959.9999999999998       10.33333333333333        2392.411816081821
-79.8640849629686         1959.9999999999998       10.338920726311528       2393.311410997172
-79.86408496296978        1960                     12.916666666666668       2893.16066590399
-79.86408496296977        1960                     12.922254059642194       2894.0079500435772
-79.86408496297067        1960                     15.499999999999996       3355.0581701081237
-79.86947221935486        1960                     2.578927970478433        656.0561026839089
-79.86947221935486        1960                     2.5833333333333326       657.1414842173939
-79.86947221935627        1960                     0                        17.954988297938392
-79.86947221935417        1960                     5.162261303812821        1273.788864385834
-79.86947221935415        1960                     5.166666666666665        1274.8224570764876
-79.86947221935274        1959.9999999999998       7.745594637148263        1852.6053861386329
-79.86947221935274        1959.9999999999998       7.749999999999998        1853.5748605218532
-79.86947221935205        1959.9999999999998       10.328927970482649       2392.4833775921675
-79.86947221935206        1960                     10.33333333333333        2393.388773303355
-79.86947221935065        1960                     12.912261303818095       2893.46723500239
-79.86947221935065        1960                     12.916666666666668       2894.3086131978566
-79.8694722193496         1960.0000000000002       15.495594637153005       3355.617153666918
-79.8694722193496         1960                     15.499999999999996       3356.3477916605716
-79.88873848137237        1959.9999999999998       2.5641332445780134       652.4438182892284
-79.8887384813723         1960                     2.5833333333333326       658.1450268786546
-82.43901393116987        1960                     0.5779861080917688       196.2851971823734
-82.439013931169          1960                     2.583333333333333        791.7461333807703
-82.43901393117012        1960                     0                        24.216101968345296
-79.88873848138292        1960                     0                        18.003345531182315
-79.88873848136703        1960                     5.1474665779159565       1271.2548406359126
-79.88873848136696        1960                     5.166666666666665        1276.725911591681
-82.43901393116877        1960                     3.161319441426655        958.7222290335319
-82.43901393116761        1960                     5.166666666666666        1530.1465126765052
-79.8887384813564         1960                     7.730799911258479        1851.1942308006453
-79.88873848135636        1960                     7.749999999999998        1856.2754520588448
-82.43901393116735        1959.9999999999998       5.744652774761944        1685.175938119533
-82.43901393116678        1960                     7.749999999999999        2215.882493080697
-79.8887384813511         1959.9999999999998       10.314133244596404       2392.0923729772976
-79.88873848135103        1959.9999999999998       10.33333333333333        2396.7834050459996
-82.43901393116653        1959.9999999999998       8.327986108096427        2358.941516794275
-82.43901393116538        1959.9999999999998       10.333333333333332       2848.894884791004
-79.88873848134048        1960                     12.897466577938932       2893.993029829951
-79.88873848134045        1960                     12.916666666666668       2898.2940090271054
-82.43901393116505        1959.9999999999998       10.911319441431832       2979.988598321666
-82.43901393116448        1960                     12.916666666666664       3429.203017125886
-79.88873848133254        1960                     15.480799911279133       3356.9561268425364
-79.88873848133248        1960                     15.499999999999996       3360.820793771515
-82.43901393116423        1960                     13.494652774766317       3548.3429663758857
-82.43901393116337        1960                     15.499999999999996       3956.8364970713806
-83.22785157277761        1960                     1.8198222398040458       569.2088901567829
-83.22785157277792        1960                     2.583333333333333        832.0944111727797
-83.2278515727769         1959.9999999999998       0                        28.837107660182024
-83.22785157277886        1960                     4.403155573134844        1350.6532954636848
-83.22785157277914        1959.9999999999998       5.166666666666666        1606.52422101772
-83.22785157277961        1959.9999999999998       6.986488906466606        2088.1323831211553
-83.22785157277991        1959.9999999999998       7.749999999999998        2324.1747116494626
-83.22785157278088        1960                     9.569822239797407        2768.7999737106484
-83.22785157278118        1960                     10.333333333333332       2984.944126729415
-83.22785157278165        1960                     12.15315557312917        3392.5994093109593
-83.22785157278194        1960                     12.916666666666664       3588.838966179187
-83.22785157278265        1960                     14.73648890646045        3959.5479297802754
-83.22785157278294        1959.9999999999998       15.499999999999996       4135.888736016144
-85.1602642107278         1960                     1.2295050578502698       416.2888336040177
-85.16026421072698        1960                     2.583333333333333        823.1443231370663
-85.16026421072837        1960                     0                        42.53306109947957
-85.16026421072641        1960                     3.8128383911853962       1203.0206263057323
-85.1602642107258         1960                     5.166666666666666        1614.9887483642954
-85.16026421072527        1960                     6.396171724520256        1980.4651599514546
-85.16026421072463        1960                     7.749999999999998        2377.2266518188576
-85.16026421072408        1960                     8.979505057855114        2728.1637902680754
-85.16026421072347        1960                     10.333333333333332       3109.5917550790145
-85.16026421072289        1960                     11.562838391189974       3445.967758792561
-85.16026421072229        1960                     12.916666666666664       3812.040433449062
-85.16026421072172        1960                     14.146171724524834       4133.854160593996
-85.16026421072111        1959.9999999999998       15.499999999999996       4484.584031071706
-97.491000341638          1960                     0.7871486732581077       692.6857977516337
-97.4910003416377         1960                     2.583333333333333        2242.073932037517
-94.75747336774859        1959.9999999999998       2.583333333333333        1938.4021137490704
-94.75747336774852        1960                     2.2203215331378474       1619.5499377179374
-97.49100034163813        1960                     0                        2.090038050874208
-94.75747336774788        1960                     0                        11.141529701518863
-97.49100034163759        1960                     3.370482006591963        2842.4748034178947
-97.49100034163729        1960                     5.166666666666666        4187.363041761701
-94.75747336774896        1960                     5.166666666666666        3640.175286810758
-94.7574733677489         1960                     4.803654866470535        3363.002981301088
-97.49100034163718        1960                     5.953815339925818        4695.653524686482
-97.49100034163688        1960                     7.75                     5835.874573435865
-94.75747336774964        1960                     7.749999999999998        5105.384311886446
-94.75747336774958        1960.0000000000002       7.386988199802667        4870.775202222655
-97.49100034163673        1960                     8.537148673259674        6252.054762727321
-97.49100034163615        1960                     10.333333333333334       7187.610142931183
-94.75747336775004        1960                     10.333333333333332       6334.027756458714
-94.75747336774997        1960                     9.970321533135355        6141.981725478926
-97.4910003416359         1960                     11.12048200659405        7511.680894114312
-97.4910003416359         1960                     12.916666666666668       8242.572675361655
-94.75747336775109        1959.9999999999998       12.916666666666668       7326.112623351304
-94.75747336775098        1959.9999999999998       12.553654866466935       7176.62917666879
-97.4910003416359         1960                     13.703815339927385       8474.535318040495
-97.4910003416356         1960                     15.5                     9000.763599562506
-94.75747336775142        1960                     15.499999999999996       8081.649432794551
-94.75747336775142        1960                     15.13698819979953        7974.728333441315
-98.69128223683374        1960                     1.6176599090049437       1395.9233507146428
-98.69128223683389        1960                     2.5833333333333335       2370.8256253273007
-98.6912822368335         1960                     0                        0.5305918112999053
-98.69128223683413        1959.9999999999998       4.200993242337636        3582.0439558355934
-98.69128223683428        1960                     5.166666666666666        4419.3366135683555
-98.69128223683451        1960                     6.78432657567033         5446.229849527724
-98.6912822368345         1960                     7.75                     6145.534103024456
-98.69128223683495        1960                     9.36765990900286         6988.103614305164
-98.69128223683511        1960                     10.333333333333334       7549.41949859856
-98.69128223683511        1960                     11.950993242335958       8207.667149090988
-98.69128223683511        1960                     12.916666666666668       8630.994733552488
-98.69128223683533        1959.9999999999995       14.534326575668887       9104.923122651053
-98.69128223683546        1960                     15.5                     9390.260010019443
-100.71761579375917       1959.9999999999998       1.2565661381450228       1270.7154633227426
-100.71761579375917       1959.9999999999998       2.5833333333333335       2584.1933782904625
-100.71761579375938       1960                     0                        2.140440528913569
-100.71761579375897       1960                     3.8398994714786117       3673.706224888275
-100.71761579375897       1960                     5.166666666666667        4803.894006842854
-100.71761579375894       1960                     6.423232804811945        5713.8517866325665
-100.71761579375851       1960                     7.75                     6659.102617596808
-100.7176157937583        1959.9999999999998       9.006566138146074        7389.505376164498
-100.71761579375853       1960                     10.333333333333336       8149.819085255651
-100.71761579375853       1960                     11.589899471479137       8700.666912869892
-100.71761579375828       1959.9999999999998       12.916666666666668       9276.043549520531
-100.71761579375809       1960                     14.173232804812997       9647.336580910127
-100.71761579375786       1960                     15.5                     10037.774874009272
-102.64041859343571       1960                     1.0627464828757465       1053.421440064947
-102.64041859343592       1960                     2.583333333333333        2778.3365856479604
-102.64041859343571       1960                     0                        1.3197303382519463
-102.64041859343592       1960                     3.6460798162087054       3683.622075534302
-102.6404185934357        1960                     5.166666666666666        5153.874799660204
-102.64041859343601       1960                     6.22941314954189         5911.024961109513
-102.64041859343601       1960                     7.75                     7126.615554991252
-102.64041859343585       1960                     8.812746482875484        7735.630251126007
-102.64041859343584       1960                     10.333333333333332       8696.559116422892
-102.64041859343598       1960                     11.396079816208559       9157.43838683833
-102.64041859343598       1960                     12.916666666666668       9863.706093503548
-102.64041859343614       1960                     13.979413149541628       10176.450037463577
-102.64041859343614       1960                     15.5                     10628.056831027228
-103.99477518220249       1960                     1.699640229469725        1928.0287561162224
-103.99477518220247       1960                     2.5833333333333335       2913.195427032667
-103.99477518220277       1960                     0                        0
-103.99477518220277       1960                     4.28297356280271         4556.57454520594
-103.99477518220277       1960                     5.166666666666667        5397.072152355324
-103.99477518220277       1960                     6.866306896136044        6755.801958090212
-103.9947751822029        1959.9999999999998       7.749999999999999        7451.630650789414
-103.99477518220289       1959.9999999999998       9.449640229469196        8525.711593042073
-103.99477518220273       1960                     10.333333333333334       9076.871576850568
-103.99477518220273       1960                     12.032973562802711       9866.304292687637
-103.99477518220273       1960                     12.916666666666668       10272.795858639602
-103.99477518220273       1960                     14.616306896136045       10777.581283283816
-103.99477518220272       1960                     15.5                     11039.40485747032
-97.49100034163533        1959.9999999999998       16.2871486732614         9209.334782061745
-97.49100034163476        1960                     18.083333333333336       9681.485547117762
-94.75747336775217        1959.9999999999998       18.08333333333333        8723.851967999748
-94.75747336775207        1959.9999999999998       17.720321533131752       8627.626244571074
-97.49100034163476        1960                     18.87048200659546        9850.93967110719
-97.49100034163445        1960                     20.666666666666668       10234.591661230192
-94.7574733677525         1960                     20.666666666666668       9246.425943624356
-94.7574733677525         1960                     20.303654866464356       9168.249051627356
-97.49100034163432        1960                     21.453815339929314       10364.925877930182
-97.49100034163433        1960                     23.25                    10660.078956366533
-94.75747336775318        1960                     23.250000000000004       9649.370419145882
-94.75747336775314        1960                     22.88698819979658        9589.242393486293
-97.4910003416342         1960                     24.037148673262813       10751.293238059512
-97.49100034163362        1960                     25.833333333333336       10957.947337254716
-94.75747336775358        1960                     25.83333333333334        9932.685174669346
-94.75747336775353        1960                     25.47032153312927        9890.606032926236
-97.49100034163337        1960                     26.620482006597186       11010.041680612645
-97.49100034163337        1960                     28.41666666666667        11128.196781194456
-94.75747336775399        1960                     28.416666666666668       10096.370127721591
-94.75747336775389        1960                     28.053654866461954       10072.339875449656
-97.49100034163337        1960                     29.20381533993052        11141.171203664515
-97.49100034163278        1960                     31.000000000000004       11170.827325785896
-94.75747336775464        1960                     31                       10140.425304208682
-94.75747336775464        1960                     30.636988199793997       10134.443937164851
-98.69128223683595        1960                     17.11765990900118        9815.48069512756
-98.69128223683607        1960                     18.083333333333336       10087.434643391163
-98.69128223683632        1960                     19.700993242333873       10432.955044064194
-98.69128223683632        1960                     20.66666666666667        10653.587734914097
-98.69128223683633        1960                     22.284326575667208       10919.40522719008
-98.69128223683646        1960                     23.25                    11088.716659361173
-98.69128223683693        1960                     24.8676599089995         11274.831182400249
-98.6912822368368         1960                     25.833333333333336       11392.821358860347
-98.6912822368368         1960                     27.45099324233307        11499.23289521521
-98.69128223683705        1959.9999999999998       28.41666666666667        11565.90182272187
-98.69128223683754        1960                     30.034326575665126       11592.610390543021
-98.69128223683754        1960                     31.000000000000007       11607.958079905984
-100.71761579375764       1960                     16.756566138146855       10391.648934084289
-100.71761579375766       1960                     18.083333333333332       10762.415626679722
-100.71761579375766       1960                     19.339899471480187       11049.510167447232
-100.71761579375766       1960                     20.66666666666667        11350.358957674607
-100.71761579375743       1960                     21.92323280481378        11570.672582453346
-100.717615793757         1960                     23.250000000000007       11801.603467419789
-100.71761579375722       1959.9999999999998       24.506566138147395       11955.1361800718
-100.7176157937572        1959.9999999999998       25.83333333333333        12116.149161463083
-100.71761579375678       1959.9999999999998       27.089899471481235       12202.90097078107
-100.71761579375679       1959.9999999999998       28.416666666666668       12293.99605420604
-100.71761579375679       1959.9999999999998       29.67323280481457        12313.966974256567
-100.71761579375658       1960                     31                       12335.144169368667
-102.64041859343615       1960                     16.56274648287496        10925.042026025198
-102.64041859343638       1960                     18.083333333333336       11377.952977733135
-102.64041859343638       1960                     19.146079816207923       11618.934210048184
-102.64041859343615       1960                     20.666666666666668       11985.946048993745
-102.64041859343646       1960                     21.72941314954111        12170.922725140015
-102.64041859343646       1960                     23.250000000000004       12452.035401975741
-102.64041859343645       1960                     24.312746482874438       12581.007523303124
-102.64041859343645       1960                     25.833333333333332       12776.22100535917
-102.64041859343646       1960                     26.896079816207774       12849.188576360584
-102.64041859343646       1960                     28.416666666666668       12958.502841154026
-102.64041859343662       1960                     29.479413149540843       12975.465869561982
-102.64041859343662       1960                     31                       12998.880901120843
-103.99477518220246       1960                     17.199640229469725       11545.647347768012
-103.99477518220246       1960                     18.083333333333332       11806.954409200365
-103.99477518220274       1960                     19.78297356280271        12217.18292457618
-103.99477518220274       1960                     20.666666666666668       12428.968249275105
-103.99477518220274       1960                     22.366306896136045       12743.182734570459
-103.99477518220274       1960                     23.250000000000004       12905.446298657174
-103.99477518220274       1960                     24.949640229469377       13123.64671735547
-103.99477518220274       1960                     25.833333333333336       13236.388505042623
-103.99477518220276       1960                     27.53297356280271        13358.57483201351
-103.99477518220276       1960                     28.416666666666664       13421.79483244622
-103.99477518220276       1960                     30.116306896136045       13447.96704983697
-103.99477518220276       1960                     31                       13461.66525530555
-55.267205635892196       1960                     0                        144.04112980137373
-55.26720563589127        1960                     2.4600580484194254       643.3673435982845
-55.13265283593368        1960                     2.413237990803327        635.4655843002107
-55.13265283593381        1960                     0                        145.64259426431767
-55.13265283593368        1960                     2.583333333333333        671.3180080901736
-55.26720563589123        1960                     2.583333333333333        666.469137367465
-55.634544183269476       1960                     2.583333333333333        683.2892503618802
-55.63454418327009        1960                     2.1003686968844475       590.7841691154135
-55.63454418327272        1960                     0                        139.52201089974
-55.267205635890605       1960                     5.043391381753279        1197.0390251538345
-55.13265283593359        1960                     4.996571324137363        1191.790039555051
-55.13265283593359        1960                     5.166666666666666        1230.8811979738346
-55.26720563589056        1960                     5.166666666666666        1221.917618341915
-55.63454418326711        1960                     5.166666666666666        1252.6114744158021
-55.63454418326772        1960                     4.68370203021996         1157.1309292297947
-55.26720563589024        1960                     7.626724715086892        1678.9424677684756
-55.13265283593354        1960                     7.5799046574710465       1679.2079072098384
-55.13265283593353        1960                     7.75                     1713.1793683905548
-55.267205635890214       1960                     7.75                     1700.317420079141
-55.63454418326582        1960                     7.75                     1739.1747168660727
-55.63454418326623        1960                     7.267035363554663        1658.4326093899
-55.26720563588928        1960                     10.210058048420976       2081.833784020239
-55.1326528359334         1959.9999999999998       10.163237990805454       2087.434676783539
-55.13265283593339        1960                     10.333333333333332       2116.0868287789835
-55.26720563588925        1959.9999999999998       10.333333333333332       2099.574904000335
-55.63454418326257        1960                     10.333333333333332       2141.159533066827
-55.63454418326318        1960                     9.850368696890799        2075.4628412389643
-55.26720563588862        1959.9999999999998       12.793391381754832       2406.801721425993
-55.13265283593331        1960                     12.746571324139468       2417.4664763371497
-55.1326528359333         1960                     12.916666666666668       2440.871243925563