% Model:              20230907_silksimulation_70kPa1.mph
% Version:            COMSOL 6.1.0.357
% Date:               Oct 6 2023, 19:56
% Dimension:          3
% Nodes:              3577
% Expressions:        1
% Description:        サーフェス
% x                       y                        z                        sqrt((ux^2+vy^2+wz^2))
12.767366551844631        -5000                    0                        0.15114741203309695
13.622601423063621        -5000                    0.8815510934077675       0.7460234153856763
13.622601423063617        -5000                    0                        0.18723309606385746
12.767366551844635        -5000                    0.8814254786952218       0.7951352381540131
13.622601423063632        -5000                    2.583333333333334        1.988567668323551
12.767366551844646        -5000                    2.5833333333333335       2.0377712077848322
15.273641766277992        -5000                    1.7015551673652687       1.3589757871690251
15.273641766277981        -5000                    0                        0.2567264905381354
15.273641766277997        -5000                    2.5833333333333335       1.9304416425177358
13.622601423063635        -5000                    3.464884426741101        2.5523057867960954
12.767366551844649        -5000                    3.4647588120285553       2.651522118443423
13.62260142306365         -5000                    5.166666666666668        3.737232432432231
12.767366551844663        -5000                    5.166666666666667        3.836536227808164
15.273641766278008        -5000                    4.284888500699093        3.0366155062742255
15.273641766278011        -5000                    5.166666666666667        3.60983213231625
13.622601423063653        -5000                    6.048217760074435        4.228783784449145
12.76736655184467         -5000                    6.048092145361634        4.372456462177951
13.622601423064141        -5000.000000000001       7.75                     5.263764653355191
12.767366551844681        -5000.000000000001       7.75                     5.407513726771816
15.273641766278022        -5000                    6.868221834031935        4.5703222219556245
15.273641766278026        -5000                    7.75                     5.067890830846094
13.622601423064147        -5000.000000000001       8.631551093408259        5.681912143536869
12.767366551844686        -5000                    8.631425478695967        5.865233437493523
13.622601423063681        -5000                    10.333333333333336       6.566227513524037
12.767366551844697        -5000                    10.333333333333334       6.749614082001717
15.273641766278033        -5000                    9.45155516736527         5.880282427949302
15.273641766278038        -5000                    10.333333333333334       6.3009542362339275
13.622601423063685        -5000                    11.214884426741103       6.910920700296701
12.767366551844702        -5000                    11.214758812028556       7.129145083569799
13.622601423063696        -5000                    12.916666666666668       7.644595916858954
12.767366551844713        -5000                    12.916666666666668       7.862874455357833
15.273641766278047        -5000                    12.034888500698603       6.965019572105829
15.27364176627805         -5000                    12.916666666666668       7.308673658640519
13.622601423063701        -5000                    13.798217760074435       7.9160461782427785
12.767366551844718        -5000                    13.798092145361888       8.164320584626072
13.622601423063713        -5000                    15.5                     8.498050927081458
12.767366551844733        -5000                    15.5                     8.746339523264146
15.273641766278065        -5000                    14.618221834031935       7.824641155875074
15.273641766278068        -5000                    15.5                     8.090217543544181
11.115983985727727        -5000                    0.8811983611271986       0.7432671088833183
11.115983985727743        -5000                    2.5833333333333335       2.127240593090629
10.261091312533074        -5000                    0.8810727978143091       0.7893473827379054
10.261091312533088        -5000                    2.5833333333333335       2.173422960080288
10.261091312533068        -5000                    0                        0.07253485303748286
11.115983985727722        -5000                    0                        0.09944521959136877
11.115983985727746        -5000                    3.464531694460532        2.74083335808907
11.115983985727755        -5000                    5.166666666666667        4.0112168231241885
10.261091312533097        -5000                    3.4644061311473884       2.8309810285895622
10.261091312533106        -5000                    5.166666666666667        4.10145820743671
11.115983985727516        -5000.000000000001       6.047865027793612        4.546998966522926
11.115983985727532        -5000.000000000001       7.750000000000002        5.65779325811082
10.261091312533111        -5000                    6.04773946448123         4.676330408943357
10.261091312533129        -5000                    7.750000000000002        5.787206641747961
11.115983985728029        -5000                    8.631198361127453        6.115395027849042
11.115983985728517        -5000                    10.333333333333332       7.066472428966319
10.261091312533132        -5000                    8.631072797814056        6.279329354065021
10.261091312533145        -5000                    10.333333333333334       7.23047691438347
11.115983985728274        -5000                    11.214531694461023       7.4459056364951755
11.115983985728288        -5000                    12.916666666666668       8.23730917116826
10.261091312533152        -5000.000000000001       11.214406131148134       7.6398721420872935
10.261091312533166        -5000.000000000001       12.91666666666667        8.431334057118733
11.115983985728295        -5000                    13.797865027794359       8.538677626585134
11.115983985727834        -5000                    15.500000000000004       9.169411357345393
10.261091312533171        -5000                    13.797739464481722       8.758049313222518
10.261091312533184        -5000                    15.500000000000004       9.388919884312857
8.609366529714356         -5000                    0.8808456352412101       0.7552589746958364
8.609366529713894         -5000                    2.5833333333333335       2.2558806149008617
7.754816048343975         -5000                    0.8807201233258797       0.7975272563852857
7.754816048343988         -5000                    2.583333333333333        2.298259526403624
7.754816048343968         -5000                    0                        0.020888882137178745
8.60936652971435          -5000                    0                        0.03863125716880114
8.609366529713654         -5000                    3.4641789685737994       2.9132691485164393
8.609366529713672         -5000                    5.166666666666668        4.25887241574201
7.754816048343995         -5000                    3.4640534566589762       2.994187180707583
7.754816048344013         -5000                    5.166666666666668        4.339889649379867
8.609366529714169         -5000                    6.04751230190764         4.833596400836637
8.609366529714663         -5000                    7.750000000000001        6.0103258350364115
7.7548160483440185        -5000                    6.04738678999231         4.9485289060409965
7.754816048344034         -5000                    7.75                     6.1253450918604075
8.609366529714173         -5000                    8.630845635240956        6.502321665826964
8.609366529713713         -5000                    10.333333333333336       7.5101846926889495
7.754816048344042         -5000                    8.630720123326133        6.646700577337722
7.754816048344057         -5000                    10.333333333333336       7.654637906538801
8.609366529713965         -5000                    11.214178968574053       7.919474368077449
8.609366529714453         -5000                    12.916666666666668       8.758497589295436
7.754816048344063         -5000                    11.214053456658977       8.088722994251034
7.754816048344075         -5000                    12.916666666666666       8.92780807048951
8.609366529714706         -5000                    13.797512301908133       9.085128610045873
8.609366529714723         -5000                    15.500000000000002       9.754651178702442
7.7548160483440824        -5000                    13.7973867899928         9.27464159781953
7.754816048344098         -5000                    15.5                     9.944371097547261
6.102749055021869         -5000.000000000001       0.8804929157474106       0.7850869787026413
6.10274905502141          -5000                    2.583333333333333        2.372922198220126
5.248540759278017         -5000                    0.8803674552283053       0.8231499200985896
5.248540759278033         -5000                    2.583333333333333        2.4111021268738355
5.24854075927801          -5000                    0                        0.003790432084414057
6.102749055022109         -5000                    0                        0.00864896109416063
6.102749055021663         -5000                    3.4638262490805065       3.0686703175810917
6.102749055021679         -5000                    5.166666666666666        4.480104305750126
5.248540759278041         -5000                    3.4637007885614013       3.1404128674375498
5.2485407592780575        -5000                    5.166666666666667        4.551950846115038
6.102749055021684         -5000                    6.0471595824138396       5.088586546069738
6.102749055022178         -5000                    7.749999999999999        6.321681622052312
5.248540759278065         -5000                    6.047034121894988        5.189341281849999
5.248540759278082         -5000.000000000001       7.75                     6.422527208828664
6.102749055022186         -5000                    8.630492915747663        6.842902608596037
6.102749055022203         -5000                    10.333333333333332       7.8976659382704675
5.2485407592780895        -5000                    8.630367455228559        6.9680002101990075
5.2485407592781055        -5000                    10.333333333333332       8.022841251885385
6.102749055022209         -5000                    11.213826249080997       8.33163904100722
6.102749055022226         -5000                    12.916666666666668       9.208080164594556
5.2485407592781135        -5000                    11.21370078856189        8.476401060861843
5.248540759278131         -5000                    12.916666666666668       9.35290675817975
6.102749055022233         -5000                    13.79715958241433        9.554824216047063
6.102749055022251         -5000                    15.499999999999998       10.252709228024099
5.2485407592781375        -5000                    13.797034121895226       9.71455903286847
5.248540759278155         -5000                    15.5                     10.412650515489716
3.596131561652218         -5000                    0.8801402026471162       0.8212226356035257
3.5961315616522365        -5000                    2.583333333333334        2.477711276877276
2.7422654453358737        -5000                    0.8800147935223924       0.854959043214268
2.7422654453358923        -5000                    2.5833333333333335       2.511569654678523
2.7422654453358657        -5000                    0                        0.0015030210463812417
3.5961315616524567        -5000                    0                        0.002074651953201281
3.5961315616524905        -5000                    3.463473535980704        3.2068337577013235
3.5961315616525096        -5000                    5.166666666666668        4.675337620246423
2.7422654453359           -5000                    3.463348126855726        3.269618412950761
2.742265445335919         -5000                    5.166666666666667        4.738230404034609
3.596131561652763         -5000                    6.046806869314291        5.312563523977628
3.5961315616532583        -5000                    7.750000000000002        6.592870474749528
2.7422654453359274        -5000                    6.046681460188806        5.3995825484745055
2.7422654453359465        -5000                    7.750000000000001        6.679983770513848
3.596131561653019         -5000                    8.630140202647864        7.138202671111117
3.5961315616525615        -5000                    10.333333333333336       8.230315095204482
2.742265445335954         -5000                    8.630014793522884        7.244639782082373
2.7422654453359727        -5000                    10.333333333333334       8.336832620346573
3.5961315616525686        -5000                    11.213473535980704       8.68375782507187
3.5961315616525873        -5000                    12.916666666666668       9.587678812328342
2.7422654453359803        -5000                    11.213348126855728       8.804793372012506
2.742265445336            -5000                    12.916666666666666       9.70878091657127
3.5961315616525944        -5000                    13.796806869314036       9.949237732347454
3.59613156165309          -5000                    15.500000000000004       10.665004199860189
2.7422654453360074        -5000                    13.79668146018906        10.08004760189544
2.742265445336027         -5000                    15.500000000000002       10.79593050503275
1.0895140496063878        -5000                    0.8797874959406431       0.8738470982571254
1.0895140496059321        -5000                    2.583333333333333        2.5702660968067526
0.23599010651822475       -5000                    0.8796621382076986       0.9210673272732159
0.23599010651824548       -5000                    2.5833333333333335       2.6511979630602918
0.23599010651821617       -5000                    0                        0.027751183829703877
1.0895140496061337        -5000                    0                        0.0206115138493748
1.0895140496059397        -5000                    3.4631208292734854       3.328119059904587
1.0895140496059605        -5000                    5.166666666666666        4.845419666029028
0.23599010651825414       -5000                    3.4629954715407942       3.4442038429997868
0.23599010651827498       -5000                    5.166666666666667        4.981577836827826
1.0895140496057225        -5000                    6.046454162606565        5.506600990904829
1.0895140496066964        -5000.000000000001       7.750000000000001        6.82549249297788
0.2359901065182836        -5000                    6.046328804874127        5.665891211280828
0.2359901065183046        -5000                    7.75                     6.9912910904926635
1.0895140496069502        -5000.000000000001       8.629787495941134        7.390002660468655
1.0895140496060178        -5000                    10.333333333333332       8.510464823072853
0.2359901065183132        -5000                    8.629662138208444        7.566961233389314
0.2359901065183338        -5000                    10.333333333333334       8.680465810023389
1.0895140496060258        -5000                    11.213120829273485       8.97830470592133
1.0895140496069997        -5000.000000000001       12.916666666666671       9.900339513608792
0.2359901065183424        -5000                    11.212995471540793       9.147569097689223
0.23599010651836344       -5000                    12.916666666666668       10.049312413996082
1.0895140496070077        -5000.000000000001       13.796454162607805       10.271510305068226
1.0895140496070284        -5000.000000000001       15.5                     10.994972435082179
0.23599010651837204       -5000                    13.796328804875111       10.407955119392106
0.23599010651839286       -5000                    15.5                     11.097834544812915
31.960598198335514        -5000                    1.706989764189353        0.7828554838978996
32.81034169959618         -5000                    2.5833333333333326       0.9927079495092139
32.81034169959621         -5000                    1.7073465056421253       0.7612087365841403
31.960598198335088        -5000                    0                        0.33210221788184185
32.81034169959626         -5000                    0                        0.31036126826039756
30.30534729212457         -5000                    0                        0.3740188448226199
30.305347292124505        -5000                    1.7062694530295328       0.38111029562727683
30.305347292124473        -5000                    2.583333333333332        0.38471876300915975
31.960598198335482        -5000                    2.583333333333332        0.776696290976647
31.96059819833543         -5000                    4.290323097522685        1.3762835454799947
32.81034169959611         -5000                    5.166666666666665        1.9002894182131076
32.81034169959613         -5000                    4.290679838975458        1.5924205109316318
30.305347292124416        -5000                    4.289602786363357        0.43242928109597667
30.305347292124384        -5000                    5.166666666666665        0.4570907089860915
31.960598198335397        -5000                    5.166666666666664        1.3663860185846952
31.96059819833534         -5000                    6.873656430856018        1.9707408576853211
32.810341699596016        -5000                    7.749999999999998        2.8150460065923197
32.81034169959605         -5000                    6.87401317230879         2.504770560603779
30.305347292124313        -5000                    6.872936119696197        0.5708633225937355
30.30534729212428         -5000                    7.7499999999999964       0.6296703021705591
31.96059819833531         -5000                    7.7499999999999964       1.993531048110183
31.96059819833526         -5000                    9.45698976418935         2.596565721496534
32.81034169959594         -5000                    10.33333333333333        3.727760478180028
32.810341699595966        -5000                    9.45734650564187         3.418206707369003
30.305347292124225        -5000                    9.456269453030023        0.8469556021166786
30.30534729212419         -5000                    10.33333333333333        0.9588307979969324
31.960598198335227        -5000                    10.333333333333329       2.6981105683438726
31.960598198335656        -5000                    12.040323097523174       3.299904007281632
32.81034169959587         -5000                    12.916666666666664       4.638548070013907
32.810341699595895        -5000.000000000001       12.040679838975947       4.329679685103741
30.305347292124132        -5000                    12.039602786363355       1.2664674100238762
30.305347292124097        -5000                    12.916666666666664       1.4246024021942527
31.960598198335624        -5000                    12.916666666666663       3.469767277694402
31.96059819833509         -5000                    14.623656430856016       4.071496730215305
32.81034169959578         -5000                    15.499999999999996       5.54490354995877
32.81034169959581         -5000                    14.624013172309041       5.240403277149656
30.305347292124033        -5000                    14.62293611969669        1.8100965415884729
30.305347292124004        -5000                    15.499999999999996       2.0016033881238338
31.960598198335056        -5000                    15.499999999999993       4.292857406943211
34.4666374956252          -5000                    1.708067282232739        1.4435050890130885
35.31533620074914         -5000                    2.583333333333332        2.02424984774555
35.31533620074916         -5000                    1.708423590360581        1.422262364408439
34.46663749562477         -5000                    0                        0.2687202737567006
35.3153362007492          -5000                    0                        0.24723248539928444
34.46663749562517         -5000                    2.583333333333332        1.6748138205197807
34.46663749562466         -5000                    4.291400615565578        2.8816432068166096
35.31533620074907         -5000                    5.166666666666664        3.8496068845249543
35.3153362007491          -5000                    4.291756923693673        3.2313309823923237
34.46663749562464         -5000                    5.166666666666664        3.1892587944200037
34.46663749562458         -5000                    6.874733948898912        4.284572758405134
35.31533620074901         -5000                    7.749999999999998        5.506276746811102
35.31533620074903         -5000                    6.875090257026754        4.9451493343970085
34.46663749562431         -5000                    7.749999999999998        4.594592904575094
34.46663749562427         -5000                    9.45806728223199         5.57693526338668
35.315336200748945        -5000                    10.333333333333329       6.992059860961781
35.315336200748966        -5000                    9.458423590360084        6.488824025282854
34.46663749562449         -5000                    10.333333333333329       5.886234328186094
34.46663749562444         -5000                    12.041400615565578       6.7562445990289115
35.315336200748874        -5000                    12.916666666666664       8.30792319000813
35.315336200748895        -5000                    12.04175692369342        7.862251618642986
34.46663749562467         -5000                    12.916666666666664       7.064858841874645
34.46663749562511         -5000                    14.624733948899653       7.823740088504395
35.315336200748824        -5000                    15.499999999999996       9.45260839142988
35.315336200748845        -5000                    14.625090257027498       9.066962741616765
34.46663749562508         -5000                    15.499999999999995       8.128785106031055
36.97267691779501         -5000                    1.7091448324084375       2.1583354406269994
37.82033079558754         -5000.000000000001       2.5833333333333326       3.1359966624218663
37.82033079558755         -5000                    1.709500707185351        2.1375067667238774
36.97267691779504         -5000                    0                        0.20586744465360543
37.82033079558758         -5000                    0                        0.18463223170281332
36.97267691779524         -5000                    2.583333333333333        2.7598266685633015
36.972676917795674        -5000                    4.292478165742516        4.595950559642728
37.82033079558749         -5000                    5.166666666666665        5.911317282818594
37.8203307955875          -5000.000000000001       4.292834040518924        4.972502867607415
36.97267691779541         -5000                    5.166666666666666        5.213716778825591
36.9726769177949          -5000                    6.875811499075102        6.818915886482554
37.82033079558744         -5000                    7.7499999999999964       8.337587123834822
37.82033079558745         -5000                    6.876167373852015        7.516850621878408
36.97267691779488         -5000                    7.749999999999997        7.379580726971297
36.97267691779485         -5000                    9.459144832408436        8.753492004494746
37.820330795587395        -5000                    10.33333333333333        10.41426010213975
37.82033079558741         -5000                    9.459500707185349        9.711784474463437
36.97267691779483         -5000                    10.33333333333333        9.256312991844638
36.97267691779479         -5000                    12.042478165741768       10.399395660401046
37.82033079558734         -5000                    12.916666666666664       12.14203075619498
37.82033079558735         -5000                    12.042834040518933       11.557580781122333
36.97267691779501         -5000                    12.916666666666664       10.844699837210038
36.972676917794985        -5000                    14.625811499075352       11.757722390405656
37.820330795587296        -5000                    15.499999999999993       13.520087346179572
37.82033079558731         -5000                    14.626167373852265       13.055243417151669
36.97267691779497         -5000                    15.499999999999995       12.14377701707544
39.47871646485194         -4999.999999999999       1.7102224147193623       2.9184848165991935
40.32532548411557         -5000                    2.5833333333333326       4.314407429569844
40.325325484115574        -5000                    1.7105778561193472       2.898078318873493
39.47871646485196         -4999.999999999999       0                        0.14354346593876988
40.325325484115595        -5000                    0                        0.12256024261874542
39.478716464851686        -5000                    2.583333333333332        3.916150049016255
39.478716464851665        -5000                    4.293555748052443        6.411331293354689
40.32532548411554         -5000                    5.166666666666665        8.083472842578473
40.325325484115545        -5000                    4.29391118945268         6.810107255998945
39.4787164648519          -4999.999999999999       5.166666666666664        7.349370331891234
39.47871646485188         -4999.999999999999       6.876889081386027        9.486162237850909
40.32532548411551         -5000                    7.749999999999998        11.31117815735901
40.32532548411552         -5000                    6.877244522786013        10.220708845340994
39.478716464851864        -4999.999999999999       7.749999999999998        10.306220884919355
39.478716464851836        -4999.999999999999       9.46022241471936         12.084562238205653
40.32532548411547         -5000                    10.33333333333333        13.997432307680262
40.32532548411548         -5000                    9.460577856119345        13.089889109438321
39.47871646485206         -5000                    10.333333333333329       12.786457683891186
39.47871646485204         -5000                    12.043555748052945       14.206575430926968
40.32532548411544         -5000                    12.916666666666664       16.14257843983244
40.32532548411545         -5000                    12.043911189452679       15.417845202666069
39.47871646485203         -5000                    12.916666666666664       14.790542702633271
39.478716464852006        -5000                    14.626889081386278       15.852803058027492
40.3253254841154          -5000                    15.499999999999996       17.74618048410241
40.32532548411541         -5000                    14.627244522786011       17.205059568445602
39.478716464851985        -5000                    15.499999999999995       16.317911271929958
41.98475613680162         -5000                    1.7113000291669533       3.7236382903173126
42.83032026633742         -5000                    2.583333333333333        5.558882458815206
42.830320266337424        -5000                    1.7116550371640076       3.7036619785183533
41.98475613680115         -5000.000000000001       0                        0.08174807296263628
42.83032026633744         -5000                    0                        0.06101625357906947
41.98475613680161         -5000                    2.583333333333333        5.13879544078312
41.98475613680161         -5000                    4.294633362500286        8.32537208486289
42.83032026633741         -5000                    5.166666666666666        10.369282304785973
42.83032026633742         -5000                    4.294988370497592        8.746120155996943
41.98475613680159         -5000                    5.166666666666666        9.597684008268269
41.9847561368011          -5000.000000000001       6.877966695833124        12.288980179718017
42.83032026633739         -5000                    7.749999999999998        14.432016843148913
42.83032026633739         -5000                    6.87832170383043         13.061136783749568
41.984756136801096        -5000.000000000001       7.749999999999998        13.378547168500715
41.98475613680108         -5000.000000000001       9.461300029166459        15.574562203064355
42.830320266337374        -5000                    10.333333333333332       17.74708544797886
42.83032026633738         -5000                    9.461655037163764        16.628487439499608
41.98475613680107         -5000.000000000001       10.333333333333332       16.48135444269994
41.98475613680106         -5000.000000000001       12.04463336249979        18.182148394234247
42.83032026633735         -5000                    12.916666666666664       20.314578880938754
42.83032026633737         -5000                    12.044988370497094       19.448232228031998
41.984756136801046        -5000.000000000001       12.916666666666664       18.906281941311132
41.98475613680103         -5000.000000000001       14.627966695833123       20.11195039618183
42.83032026633734         -5000                    15.499999999999996       22.134366213213482