% Model:              20230907_silksimulation_80kPa.mph
% Version:            COMSOL 6.1.0.357
% Date:               Oct 2 2023, 21:12
% Dimension:          3
% Nodes:              3577
% Expressions:        1
% Description:        サーフェス
% x                       y                        z                        sqrt((ux^2+vy^2+wz^2))
12.767366551844631        -5000                    0                        0.1676373743240044
13.622601423063621        -5000                    0.8815510934077675       0.8542023505876054
13.622601423063617        -5000                    0                        0.2097790499274349
12.767366551844635        -5000                    0.8814254786952218       0.9114130526243044
13.622601423063632        -5000                    2.583333333333334        2.289227043929889
12.767366551844646        -5000                    2.5833333333333335       2.3465436703381792
15.273641766277992        -5000                    1.7015551673652687       1.5582145797223088
15.273641766277981        -5000                    0                        0.29149032202670055
15.273641766277997        -5000                    2.5833333333333335       2.2148999265868037
13.622601423063635        -5000                    3.464884426741101        2.937209078528637
12.767366551844649        -5000                    3.4647588120285553       3.0522175042682784
13.62260142306365         -5000                    5.166666666666668        4.298358783786135
12.767366551844663        -5000                    5.166666666666667        4.413467680916854
15.273641766278008        -5000                    4.284888500699093        3.4828074471337906
15.273641766278011        -5000                    5.166666666666667        4.140167060841851
13.622601423063653        -5000                    6.048217760074435        4.862136274727861
12.76736655184467         -5000                    6.048092145361634        5.027840327162561
13.622601423064141        -5000.000000000001       7.75                     6.047120976961226
12.767366551844681        -5000.000000000001       7.75                     6.212912497410169
15.273641766278022        -5000                    6.868221834031935        5.239523390853419
15.273641766278026        -5000                    7.75                     5.809547416688734
13.622601423064147        -5000.000000000001       8.631551093408259        6.525276206888784
12.767366551844686        -5000                    8.631425478695967        6.735574171949454
13.622601423063681        -5000                    10.333333333333336       7.533305929700766
12.767366551844697        -5000                    10.333333333333334       7.743678301087018
15.273641766278033        -5000                    9.45155516736527         6.73757828968801
15.273641766278038        -5000                    10.333333333333334       7.218830466628196
13.622601423063685        -5000                    11.214884426741103       7.925716509071518
12.767366551844702        -5000                    11.214758812028556       8.174628815228564
13.622601423063696        -5000                    12.916666666666668       8.756784908615813
12.767366551844713        -5000                    12.916666666666668       9.005758558942322
15.273641766278047        -5000                    12.034888500698603       7.975193843108915
15.27364176627805         -5000                    12.916666666666668       8.367499882954833
13.622601423063701        -5000                    13.798217760074435       9.063602287985809
12.767366551844718        -5000                    13.798092145361888       9.345093762255473
13.622601423063713        -5000                    15.5                     9.716431482023868
12.767366551844733        -5000                    15.5                     9.997995783689092
15.273641766278065        -5000                    14.618221834031935       8.952338285394632
15.273641766278068        -5000                    15.5                     9.254301935347971
11.115983985727727        -5000                    0.8811983611271986       0.8503758031417268
11.115983985727743        -5000                    2.5833333333333335       2.447495897005093
10.261091312533074        -5000                    0.8810727978143091       0.9027983318715874
10.261091312533088        -5000                    2.5833333333333335       2.5000362422967077
10.261091312533068        -5000                    0                        0.07534573379361167
11.115983985727722        -5000                    0                        0.10679177408154239
11.115983985727746        -5000                    3.464531694460532        3.1529878994260585
11.115983985727755        -5000                    5.166666666666667        4.610851100847949
10.261091312533097        -5000                    3.4644061311473884       3.2555050178947464
10.261091312533106        -5000                    5.166666666666667        4.713475763158148
11.115983985727516        -5000.000000000001       6.047865027793612        5.225065441230459
11.115983985727532        -5000.000000000001       7.750000000000002        6.496202369124299
10.261091312533111        -5000                    6.04773946448123         5.3721105432691285
10.261091312533129        -5000                    7.750000000000002        6.6433412405559755
11.115983985728029        -5000                    8.631198361127453        7.0187293690352455
11.115983985728517        -5000                    10.333333333333332       8.103026192284096
10.261091312533132        -5000                    8.631072797814056        7.205082755451014
10.261091312533145        -5000                    10.333333333333334       8.28945956524866
11.115983985728274        -5000                    11.214531694461023       8.533865663081857
11.115983985728288        -5000                    12.916666666666668       9.431367104141621
10.261091312533152        -5000.000000000001       11.214406131148134       8.754332671727118
10.261091312533166        -5000.000000000001       12.91666666666667        9.651900319789325
11.115983985728295        -5000                    13.797865027794359       9.770614870697138
11.115983985727834        -5000                    15.500000000000004       10.480241511863534
10.261091312533171        -5000                    13.797739464481722       10.019956052681524
10.261091312533184        -5000                    15.500000000000004       10.729770348811908
8.609366529714356         -5000                    0.8808456352412101       0.8626137547498739
8.609366529713894         -5000                    2.5833333333333335       2.5900979929456813
7.754816048343975         -5000                    0.8807201233258797       0.9092713954460467
7.754816048343988         -5000                    2.583333333333333        2.6368829883684914
7.754816048343968         -5000                    0                        0.014615559177067472
8.60936652971435          -5000                    0                        0.035374494618278025
8.609366529713654         -5000                    3.4641789685737994       3.3453719898242475
8.609366529713672         -5000                    5.166666666666668        4.8866545470095515
7.754816048343995         -5000                    3.4640534566589762       3.4351394978223837
7.754816048344013         -5000                    5.166666666666668        4.97653568245137
8.609366529714169         -5000                    6.04751230190764         5.545119514623628
8.609366529714663         -5000                    7.750000000000001        6.890887752389435
7.7548160483440185        -5000                    6.04738678999231         5.673366438326594
7.754816048344034         -5000                    7.75                     7.019233889701653
8.609366529714173         -5000                    8.630845635240956        7.452484436291856
8.609366529713713         -5000                    10.333333333333336       8.602753378199335
7.754816048344042         -5000                    8.630720123326133        7.614647104492218
7.754816048344057         -5000                    10.333333333333336       8.765000847281058
8.609366529713965         -5000                    11.214178968574053       9.067506628779629
8.609366529714453         -5000                    12.916666666666668       10.02230235585823
7.754816048344063         -5000                    11.214053456658977       9.259010889113155
7.754816048344075         -5000                    12.916666666666666       10.213877006268891
8.609366529714706         -5000                    13.797512301908133       10.390263194789608
8.609366529714723         -5000                    15.500000000000002       11.148937968427116
7.7548160483440824        -5000                    13.7973867899928         10.606503430233776
7.754816048344098         -5000                    15.5                     11.365414780604945
6.102749055021869         -5000.000000000001       0.8804929157474106       0.9091410349364222
6.10274905502141          -5000                    2.583333333333333        2.7151586348347934
5.248540759278017         -5000                    0.8803674552283053       0.9495854279565995
5.248540759278033         -5000                    2.583333333333333        2.7557360901802586
5.24854075927801          -5000                    0                        0.014552990789838061
6.102749055022109         -5000                    0                        0.014716001371659918
6.102749055021663         -5000                    3.4638262490805065       3.513209210617231
6.102749055021679         -5000                    5.166666666666666        5.1256564801748015
5.248540759278041         -5000                    3.4637007885614013       3.590319272089494
5.2485407592780575        -5000                    5.166666666666667        5.202885342251854
6.102749055021684         -5000                    6.0471595824138396       5.822307468125515
6.102749055022178         -5000                    7.749999999999999        7.231559302803716
5.248540759278065         -5000                    6.047034121894988        5.932046465377089
5.248540759278082         -5000.000000000001       7.75                     7.341402129788628
6.102749055022186         -5000                    8.630492915747663        7.82681891329805
6.102749055022203         -5000                    10.333333333333332       9.032872628078875
5.2485407592780895        -5000                    8.630367455228559        7.965139975728029
5.2485407592781055        -5000                    10.333333333333332       9.171282549173215
6.102749055022209         -5000                    11.213826249080997       9.526755225536615
6.102749055022226         -5000                    12.916666666666668       10.52961389295587
5.2485407592781135        -5000                    11.21370078856189        9.689598918392576
5.248540759278131         -5000                    12.916666666666668       10.692531473633442
6.102749055022233         -5000                    13.79715958241433        10.922139027422912
6.102749055022251         -5000                    15.499999999999998       11.721607728708218
5.2485407592781375        -5000                    13.797034121895226       11.10542933343623
5.248540759278155         -5000                    15.5                     11.90510729377416
3.596131561652218         -5000                    0.8801402026471162       0.9475405147673478
3.5961315616522365        -5000                    2.583333333333334        2.8220517821249693
2.7422654453358737        -5000                    0.8800147935223924       0.9816934410860543
2.7422654453358923        -5000                    2.5833333333333335       2.8563427320260213
2.7422654453358657        -5000                    0                        0.01215975737706725
3.5961315616524567        -5000                    0                        0.012749441060332567
3.5961315616524905        -5000                    3.463473535980704        3.6564195299211213
3.5961315616525096        -5000                    5.166666666666668        5.328606666341991
2.7422654453359           -5000                    3.463348126855726        3.7212341994380917
2.742265445335919         -5000                    5.166666666666667        5.393544461957698
3.596131561652763         -5000                    6.046806869314291        6.057579568348865
3.5961315616532583        -5000                    7.750000000000002        7.519675114680915
2.7422654453359274        -5000                    6.046681460188806        6.149442975155118
2.7422654453359465        -5000                    7.750000000000001        7.611646178170736
3.596131561653019         -5000                    8.630140202647864        8.143251952811243
3.5961315616525615        -5000                    10.333333333333336       9.395253457440052
2.742265445335954         -5000                    8.630014793522884        8.258549991407591
2.7422654453359727        -5000                    10.333333333333334       9.510643683123249
3.5961315616525686        -5000                    11.213473535980704       9.913436031694506
3.5961315616525873        -5000                    12.916666666666668       10.955344491792438
2.7422654453359803        -5000                    11.213348126855728       10.048553069438249
2.742265445336            -5000                    12.916666666666666       11.090538247100344
3.5961315616525944        -5000                    13.796806869314036       11.3681357687089
3.59613156165309          -5000                    15.500000000000004       12.199972723430726
2.7422654453360074        -5000                    13.79668146018906        11.519454017421666
2.742265445336027         -5000                    15.500000000000002       12.351383012132263
1.0895140496063878        -5000                    0.8797874959406431       0.9885580905172778
1.0895140496059321        -5000                    2.583333333333333        2.9110908876934083
0.23599010651822475       -5000                    0.8796621382076986       1.0193645449397477
0.23599010651824548       -5000                    2.5833333333333335       2.947140150498492
0.23599010651821617       -5000                    0                        0.021795418139663215
1.0895140496061337        -5000                    0                        0.01927482607777885
1.0895140496059397        -5000                    3.4631208292734854       3.775758963702414
1.0895140496059605        -5000                    5.166666666666666        5.496975632429178
0.23599010651825414       -5000                    3.4629954715407942       3.8385944669163865
0.23599010651827498       -5000                    5.166666666666667        5.563843861472886
1.0895140496057225        -5000                    6.046454162606565        6.252678905835495
1.0895140496066964        -5000.000000000001       7.750000000000001        7.757628081617668
0.2359901065182836        -5000                    6.046328804874127        6.342284460078915
0.2359901065183046        -5000                    7.75                     7.850070176646232
1.0895140496069502        -5000.000000000001       8.629787495941134        8.404364807126596
1.0895140496060178        -5000                    10.333333333333332       9.69304569188677
0.2359901065183132        -5000                    8.629662138208444        8.515509511202627
0.2359901065183338        -5000                    10.333333333333334       9.805849652600973
1.0895140496060258        -5000                    11.213120829273485       10.230816142465834
1.0895140496069997        -5000.000000000001       12.916666666666671       11.3032424796192
0.2359901065183424        -5000                    11.212995471540793       10.358309902026868
0.23599010651836344       -5000                    12.916666666666668       11.431242557135278
1.0895140496070077        -5000.000000000001       13.796454162607805       11.73204746598794
1.0895140496070284        -5000.000000000001       15.5                     12.587907316873267
0.23599010651837204       -5000                    13.796328804875111       11.870753966946705
0.23599010651839286       -5000                    15.5                     12.725804474966397
31.960598198335514        -5000                    1.706989764189353        0.8977641621073633
32.81034169959618         -5000                    2.5833333333333326       1.1373553687155247
32.81034169959621         -5000                    1.7073465056421253       0.872512337219514
31.960598198335088        -5000                    0                        0.38222085210820017
32.81034169959626         -5000                    0                        0.35686128453011395
30.30534729212457         -5000                    0                        0.4316813707704096
30.305347292124505        -5000                    1.7062694530295328       0.44140990026512134
30.305347292124473        -5000                    2.583333333333332        0.4465779993053746
31.960598198335482        -5000                    2.583333333333332        0.8915710225045744
31.96059819833543         -5000                    4.290323097522685        1.5774332843527024
32.81034169959611         -5000                    5.166666666666665        2.175470864914313
32.81034169959613         -5000                    4.290679838975458        1.823360967978338
30.305347292124416        -5000                    4.289602786363357        0.5020510628938755
30.305347292124384        -5000                    5.166666666666665        0.5309375664528245
31.960598198335397        -5000                    5.166666666666664        1.5667065654766243
31.96059819833534         -5000                    6.873656430856018        2.257792989593385
32.810341699596016        -5000                    7.749999999999998        3.221423030764405
32.81034169959605         -5000                    6.87401317230879         2.8667017182362757
30.305347292124313        -5000                    6.872936119696197        0.6598024995089856
30.30534729212428         -5000                    7.7499999999999964       0.7265807651367806
31.96059819833531         -5000                    7.7499999999999964       2.2829334059451316
31.96059819833526         -5000                    9.45698976418935         2.972225669590646
32.81034169959594         -5000                    10.33333333333333        4.264611930719996
32.810341699595966        -5000                    9.45734650564187         3.91085934865588
30.305347292124225        -5000                    9.456269453030023        0.9726512385007422
30.30534729212419         -5000                    10.33333333333333        1.0995051512245797
31.960598198335227        -5000                    10.333333333333329       3.0866489228143323
31.960598198335656        -5000                    12.040323097523174       3.7742446600211954
32.81034169959587         -5000                    12.916666666666664       5.305196499494178
32.810341699595895        -5000.000000000001       12.040679838975947       4.952351367617522
30.305347292124132        -5000                    12.039602786363355       1.4492642291838616
30.305347292124097        -5000                    12.916666666666664       1.6292052474796843
31.960598198335624        -5000                    12.916666666666663       3.9674000510975773
31.96059819833509         -5000                    14.623656430856016       4.6546668856738895
32.81034169959578         -5000                    15.499999999999996       6.340002950746091
32.81034169959581         -5000                    14.624013172309041       5.992606965025759
30.305347292124033        -5000                    14.62293611969669        2.0682099837759473
30.305347292124004        -5000                    15.499999999999996       2.2854227292180553
31.960598198335056        -5000                    15.499999999999993       4.906460598822417
34.4666374956252          -5000                    1.708067282232739        1.6532295699776767
35.31533620074914         -5000                    2.583333333333332        2.3175941697782196
35.31533620074916         -5000                    1.708423590360581        1.6285711126680213
34.46663749562477         -5000                    0                        0.3081295235942874
35.3153362007492          -5000                    0                        0.28319047424689675
34.46663749562517         -5000                    2.583333333333332        1.9178546842045514
34.46663749562466         -5000                    4.291400615565578        3.299248496078431
35.31533620074907         -5000                    5.166666666666664        4.40680383667825
35.3153362007491          -5000                    4.291756923693673        3.6992761446821945
34.46663749562464         -5000                    5.166666666666664        3.651068671111246
34.46663749562458         -5000                    6.874733948898912        4.904434976172023
35.31533620074901         -5000                    7.749999999999998        6.302397824080782
35.31533620074903         -5000                    6.875090257026754        5.660431597834055
34.46663749562431         -5000                    7.749999999999998        5.258864418080335
34.46663749562427         -5000                    9.45806728223199         6.382536618078432
35.315336200748945        -5000                    10.333333333333329       8.0018634356938
35.315336200748966        -5000                    9.458423590360084        7.4263044255818755
34.46663749562449         -5000                    10.333333333333329       6.7359981266109985
34.46663749562444         -5000                    12.041400615565578       7.730711427681176
35.315336200748874        -5000                    12.916666666666664       9.506318563250993
35.315336200748895        -5000                    12.04175692369342        8.996784237040888
34.46663749562467         -5000                    12.916666666666664       8.083266232691694
34.46663749562511         -5000                    14.624733948899653       8.950402970869462
35.315336200748824        -5000                    15.499999999999996       10.814187074876582
35.315336200748845        -5000                    14.625090257027498       10.37363618883853
34.46663749562508         -5000                    15.499999999999995       9.298551567026514
36.97267691779501         -5000                    1.7091448324084375       2.4713122665987055
37.82033079558754         -5000.000000000001       2.5833333333333326       3.5903663336423515
37.82033079558755         -5000                    1.709500707185351        2.4472583791266884
36.97267691779504         -5000                    0                        0.2351884290678643
37.82033079558758         -5000                    0                        0.21066894028650113
36.97267691779524         -5000                    2.583333333333333        3.159767319518057
36.972676917795674        -5000                    4.292478165742516        5.261767789459042
37.82033079558749         -5000                    5.166666666666665        6.767321658720029
37.8203307955875          -5000.000000000001       4.292834040518924        5.692804477987901
36.97267691779541         -5000                    5.166666666666666        5.968712222751572
36.9726769177949          -5000                    6.875811499075102        7.80593853318571
37.82033079558744         -5000                    7.7499999999999964       9.544145792005907
37.82033079558745         -5000                    6.876167373852015        8.604930512805085
36.97267691779488         -5000                    7.749999999999997        8.4473755470883
36.97267691779485         -5000                    9.459144832408436        10.019419056565154
37.820330795587395        -5000                    10.33333333333333        11.920224546471449
37.82033079558741         -5000                    9.459500707185349        11.116516629291748
36.97267691779483         -5000                    10.33333333333333        10.59450359789589
36.97267691779479         -5000                    12.042478165741768       11.901890767484705
37.82033079558734         -5000                    12.916666666666664       13.896356748663596
37.82033079558735         -5000                    12.042834040518933       13.227883937646652
36.97267691779501         -5000                    12.916666666666664       12.411005053132094
36.972676917794985        -5000                    14.625811499075352       13.454615516521372
37.820330795587296        -5000                    15.499999999999993       15.471556493737816
37.82033079558731         -5000                    14.626167373852265       14.940184510571878
36.97267691779497         -5000                    15.499999999999995       13.895696389204439
39.47871646485194         -4999.999999999999       1.7102224147193623       3.3414856589510857
40.32532548411557         -5000                    2.5833333333333326       4.939628103404505
40.325325484115574        -5000                    1.7105778561193472       3.3180452859942977
39.47871646485196         -4999.999999999999       0                        0.1633975689376692
40.325325484115595        -5000                    0                        0.13929668301469172
39.478716464851686        -5000                    2.583333333333332        4.483649508613724
39.478716464851665        -5000                    4.293555748052443        7.340296993643017
40.32532548411554         -5000                    5.166666666666665        9.254446905459236
40.325325484115545        -5000                    4.29391118945268         7.796869295295155
39.4787164648519          -4999.999999999999       5.166666666666664        8.41392671936281
39.47871646485188         -4999.999999999999       6.876889081386027        10.859865854559741
40.32532548411551         -5000                    7.749999999999998        12.948972571665786
40.32532548411552         -5000                    6.877244522786013        11.700894388589752
39.478716464851864        -4999.999999999999       7.749999999999998        11.798305426007413
39.478716464851836        -4999.999999999999       9.46022241471936         13.833470447285942
40.32532548411547         -5000                    10.33333333333333        16.023106988713586
40.32532548411548         -5000                    9.460577856119345        14.984560568282573
39.47871646485206         -5000                    10.333333333333329       14.636514573664902
39.47871646485204         -5000                    12.043555748052945       16.261165172118183
40.32532548411544         -5000                    12.916666666666664       18.477243600507883
40.32532548411545         -5000                    12.043911189452679       17.648095243882047
39.47871646485203         -5000                    12.916666666666664       16.929085884427025
39.478716464852006        -5000                    14.626889081386278       18.143640200535664
40.3253254841154          -5000                    15.499999999999996       20.310864521601587
40.32532548411541         -5000                    14.627244522786011       19.692050341612514
39.478716464851985        -5000                    15.499999999999995       18.67534582865829
41.98475613680162         -5000                    1.7113000291669533       4.26330396028684
42.83032026633742         -5000                    2.583333333333333        6.364575107944827
42.830320266337424        -5000                    1.7116550371640076       4.240485896540393
41.98475613680115         -5000.000000000001       0                        0.09275694361247994
42.83032026633744         -5000                    0                        0.06907370279725522
41.98475613680161         -5000                    2.583333333333333        5.8835449775757445
41.98475613680161         -5000                    4.294633362500286        9.531851841754964
42.83032026633741         -5000                    5.166666666666666        11.871770439840327
42.83032026633742         -5000                    4.294988370497592        10.013638810838085
41.98475613680159         -5000                    5.166666666666666        10.988223360072777
41.9847561368011          -5000.000000000001       6.877966695833124        14.069122172630394
42.83032026633739         -5000                    7.749999999999998        16.522506627455755
42.83032026633739         -5000                    6.87832170383043         14.953308382707977
41.984756136801096        -5000.000000000001       7.749999999999998        15.316167616929029
41.98475613680108         -5000.000000000001       9.461300029166459        17.82965879114528
42.830320266337374        -5000                    10.333333333333332       20.316784459173032
42.83032026633738         -5000                    9.461655037163764        19.036519223662772
41.98475613680107         -5000.000000000001       10.333333333333332       18.867345852623423
41.98475613680106         -5000.000000000001       12.04463336249979        20.813497960047705
42.83032026633735         -5000                    12.916666666666664       23.254707580992623
42.83032026633737         -5000                    12.044988370497094       22.263340294494434
41.984756136801046        -5000.000000000001       12.916666666666664       21.641960226914332
41.98475613680103         -5000.000000000001       14.627966695833123       23.02088214108899
42.83032026633734         -5000                    15.499999999999996       25.33612256549318