% Model:              20230907_silksimulation_80kPa.mph
% Version:            COMSOL 6.1.0.357
% Date:               Oct 2 2023, 21:12
% Dimension:          3
% Nodes:              6683
% Expressions:        1
% Description:        サーフェス
% x                       y                        z                        sqrt((ux^2+vy^2+wz^2))
-4132.601771309903        6000                     2.764386146159211        1591.8878516278407
-4132.601771309903        6000                     3.1                      1785.1450603138119
-4132.100759278386        6000                     3.1000000000000005       1730.2574094598704
-4132.100759278386        6000                     0.3439358219746913       143.18667881293598
-4132.601771309903        6000                     0                        0.024949223335149175
-4132.100759278386        6000                     0                        0.02597817325854475
-4132.601771309904        6000                     5.864386146157331        3185.463890819563
-4132.601771309904        6000                     6.2                      3355.4671622640585
-4132.100759278384        6000                     6.2                      3258.2944889438545
-4132.100759278386        6000                     3.4439358219748115       1862.1911581424156
-4132.601771309904        6000                     8.964386146156048        4564.219680242894
-4132.601771309904        6000                     9.299999999999999        4710.966306233129
-4132.100759278383        6000                     9.3                      4584.111238890674
-4132.1007592783835       6000                     6.543935821976852        3378.997481608635
-4132.601771309904        6000                     12.064386146156048       5728.152511686667
-4132.601771309903        6000                     12.400000000000002       5851.642492222146
-4132.100759278383        6000                     12.4                     5707.707659297263
-4132.100759278383        6000                     9.643935821977692        4693.583475531257
-4132.601771309904        6000                     15.164386146154284       6677.2623851930075
-4132.6017713099045       6000                     15.5                     6777.495720279605
-4132.10075927838         6000                     15.5                     6629.083750212358
-4132.100759278382        6000                     12.743935821977812       5805.949139918168
-4136.7286307579525       6000                     0.2670173232666731       153.77410701220484
-4136.7286307579525       6000.000000000001        3.100000000000001        2237.2429378208512
-4136.728630757953        6000                     0                        0.01697817271218359
-4136.7286307579525       6000                     3.3670173232679406       2372.4990304050602
-4136.72863075795         6000                     6.200000000000002        4155.858558315925
-4136.72863075795         6000                     6.467017323268928        4272.611459967231
-4136.728630757947        6000                     9.299999999999999        5755.846861648577
-4136.728630757947        6000                     9.567017323271795        5854.096572367648
-4136.728630757947        6000                     12.400000000000004       7037.207847828496
-4136.728630757946        6000                     12.667017323271985       7116.954367618242
-4136.728630757944        6000                     15.5                     7999.941516885371
-4137.117604325917        6000                     2.8394526062636407       2088.243255516191
-4137.117604325917        6000                     3.100000000000001        2279.8538205045093
-4137.117604325916        6000                     0                        0.016225292810653463
-4137.117604325916        6000.000000000001        5.939452606262499        4067.2861620504777
-4137.117604325916        6000                     6.200000000000002        4231.29664396233
-4137.1176043259175       6000                     9.03945260625951         5717.9194396453695
-4137.1176043259175       6000                     9.299999999999999        5854.32847051661
-4137.117604325917        6000                     12.139452606259338       7040.141720346238
-4137.117604325917        6000                     12.400000000000004       7148.949300175904
-4137.1176043259175       6000                     15.239452606257316       8033.953004178924
-4137.1176043259175       6000                     15.5                     8115.159132970019
-4141.356772793955        6000.000000000001        0.1899864671615069       139.7274088500101
-4141.3567727939535       6000                     3.1                      2744.2271264643277
-4141.356772793955        6000.000000000001        0                        0.008435687736018714
-4141.3567727939535       6000                     3.2899864671625867       2863.820616113494
-4141.356772793951        6000                     6.2                      5053.421137506186
-4141.356772793951        6000                     6.389986467164748        5152.888146147221
-4141.356772793949        6000.000000000001        9.299999999999999        6927.58203316413
-4141.356772793949        6000                     9.489986467165826        7006.922560796777
-4141.356772793945        6000                     12.4                     8366.709813442716
-4141.356772793945        6000                     12.589986467167922       8425.923860068846
-4141.356772793943        6000                     15.5                     9370.804478352244
-4141.63353910657         6000                     2.914623452681359        2608.633579158532
-4141.63353910657         6000                     3.1                      2774.544203918459
-4141.633539106571        6000.000000000001        0                        0.00792371129757099
-4141.63353910657         6000                     6.014623452679313        4967.613397458952
-4141.63353910657         6000                     6.2                      5107.094385099384
-4141.63353910657         6000.000000000001        9.114623452678195        6884.5996667966565
-4141.63353910657         6000.000000000001        9.299999999999999        6997.650543573912
-4141.63353910657         6000                     12.21462345267609        8359.591913432194
-4141.63353910657         6000                     12.4                     8446.212679346636
-4141.633539106572        6000                     15.31462345267299        9392.59013737466
-4141.633539106572        6000                     15.5                     9452.780792426589
-4145.985185400748        6000                     0.11284324769522668      100.9941519287084
-4145.985185400745        6000.000000000001        3.1                      3251.209776596363
-4145.985185400748        6000.000000000001        0                        2.88379866850445E-4
-4145.985185400745        6000                     3.2128432476973874       3336.1152722746015
-4145.985185400742        6000                     6.2                      5950.981868326963
-4145.985185400742        6000                     6.312843247699548        6019.7987077552925
-4145.985185400738        6000.000000000001        9.299999999999999        8099.316275193679
-4145.985185400738        6000.000000000001        9.412843247701707        8152.044458371621
-4145.985185400737        6000                     12.4                     9696.212997196586
-4145.985185400737        6000                     12.51284324770387        9732.852524123879
-4145.985185400732        6000                     15.5                     10741.672034336116
-4146.149575646597        6000.000000000001        2.98989868001017         3153.1072250142315
-4146.149575646598        6000.000000000001        3.1                      3269.2160426449122
-4146.149575646598        6000.000000000001        0                        0
-4146.149575646597        6000.000000000001        6.089898680008063        5886.482839209684
-4146.149575646597        6000.000000000001        6.2                      5982.8601304321655
-4146.149575646597        6000.000000000001        9.189898680005916        8064.286498548675
-4146.149575646597        6000                     9.299999999999999        8140.932263362219
-4146.149575646598        6000.000000000001        12.289898680003809       9686.518203030957
-4146.149575646598        6000                     12.4                     9743.432441434745
-4146.149575646599        6000                     15.389898680000684       10753.177952656417
-4146.149575646599        6000                     15.5                     10790.360664650123
-4132.601771309903        6000                     18.264386146155935       7421.295094524034
-4132.601771309902        6000                     18.6                     7499.454742218151
-4132.100759278382        6000                     18.6                     7343.09718675364
-4132.10075927838         6000                     15.843935821979493       6701.2361095239075
-4132.601771309903        6000                     21.364386146155223       7998.229155814117
-4132.601771309904        6000                     21.700000000000003       8058.782240266992
-4132.100759278381        6000                     21.700000000000003       7896.4375515911615
-4132.100759278382        6000                     18.943935821977696       7399.1647532899115
-4132.601771309903        6000                     24.464386146155938       8412.531693085217
-4132.601771309903        6000                     24.8                     8455.478214295013
-4132.100759278381        6000                     24.8                     8289.104844595615
-4132.100759278381        6000                     22.043935821978533       7936.420325235601
-4132.601771309903        6000                     27.564386146155936       8664.202706331864
-4132.601771309902        6000                     27.900000000000002       8689.542664297844
-4132.100759278381        6000                     27.900000000000002       8521.09906576146
-4132.100759278381        6000                     25.143935821977692       8313.002825347132
-4132.601771309901        6000                     30.664386146158044       8753.242195548957
-4132.601771309901        6000                     31                       8760.975590271086
-4132.100759278383        6000                     31                       8592.420215085438
-4132.100759278381        6000                     28.243935821977573       8528.912253619867
-4136.728630757944        6000                     15.76701732327377        8062.126017466115
-4136.728630757946        6000                     18.600000000000005       8787.345436089116
-4136.728630757946        6000                     18.867017323271          8835.522000736708
-4136.728630757945        6000                     21.700000000000003       9395.987244303933
-4136.728630757945        6000                     21.967017323272973       9430.15587294062
-4136.728630757945        6000                     24.800000000000008       9825.866941446977
-4136.728630757945        6000                     25.06701732327279        9846.027634071705
-4136.728630757947        6000                     27.900000000000006       10076.984527512497
-4136.728630757946        6000                     28.167017323271892       10083.137284125056
-4136.728630757946        6000                     31                       10149.340002501027
-4137.117604325915        6000                     18.339452606260128       8842.034798332448
-4137.117604325915        6000.000000000001        18.600000000000005       8908.731382980875
-4137.1176043259175       6000                     21.43945260625837        9470.476609889321
-4137.1176043259175       6000                     21.700000000000003       9522.021177430996
-4137.117604325917        6000                     24.539452606258287       9918.635965804402
-4137.117604325917        6000                     24.800000000000004       9955.0285162382
-4137.117604325917        6000                     27.639452606259255       10186.512866072004
-4137.117604325917        6000                     27.900000000000006       10207.753399397534
-4137.117604325915        6000.000000000001        30.7394526062603         10274.107310692854
-4137.117604325915        6000.000000000001        31                       10280.195826910098
-4141.356772793943        6000                     15.689986467170831       9419.438426674076
-4141.356772793944        6000                     18.6                     10231.599823648894
-4141.356772793944        6000                     18.78998646716887        10269.185194004556
-4141.3567727939435       6000                     21.7                     10895.543848642077
-4141.3567727939435       6000                     21.889986467169884       10922.080641004211
-4141.356772793945        6000                     24.8                     11362.636553303191
-4141.356772793945        6000                     24.989986467168805       11378.124767671296
-4141.356772793945        6000                     27.900000000000006       11632.877937629568
-4141.356772793944        6000                     28.089986467168806       11637.31757400363
-4141.356772793945        6000                     31                       11706.268001621365
-4141.63353910657         6000                     18.414623452674846       10266.228780967165
-4141.63353910657         6000                     18.6                     10317.964900388166
-4141.633539106571        6000                     21.514623452673856       10945.31580580373
-4141.633539106571        6000                     21.7                     10985.215965512607
-4141.633539106571        6000                     24.614623452674845       11426.469787776088
-4141.633539106571        6000                     24.8                     11454.53398777233
-4141.633539106571        6000                     27.71462345267485        11709.69072688249
-4141.633539106571        6000                     27.900000000000002       11725.918967166162
-4141.63353910657         6000                     30.814623452675963       11794.978623122372
-4141.63353910657         6000                     31                       11799.37090369346
-4145.985185400732        6000                     15.61284324770699        10773.165078215156
-4145.985185400735        6000                     18.6                     11675.859857427444
-4145.985185400735        6000                     18.71284324770491        11700.148062545284
-4145.985185400733        6000                     21.700000000000003       12395.10692859214
-4145.985185400733        6000                     21.812843247705953       12412.19029494857
-4145.985185400735        6000                     24.8                     12899.413247833316
-4145.985185400735        6000.000000000001        24.91284324770483        12909.291775427955
-4145.985185400737        6000                     27.900000000000002       13188.778815148225
-4145.985185400737        6000                     28.012843247703792       13191.452503981158
-4145.985185400736        6000                     31                       13263.203630537466
-4146.149575646598        6000                     18.489898680002643       11693.88403239354
-4146.149575646598        6000                     18.6                     11727.155154738995
-4146.149575646598        6000                     21.589898680001667       12422.751927373696
-4146.149575646598        6000                     21.700000000000003       12448.36641531774
-4146.149575646598        6000                     24.68989868000268        12936.036592845874
-4146.149575646598        6000                     24.8                     12953.994446387951
-4146.149575646598        6000                     27.7898986800037         13233.738028807653
-4146.149575646598        6000                     27.900000000000002       13244.03924794794
-4146.149575646597        6000                     30.889898680003736       13315.856235260233
-4146.149575646597        6000                     31                       13318.500819998877
-4110.023084031307        5999.999999999999        2.39252355558522         427.31317228346046
-4110.023084031307        5999.999999999999        3.0999999999999996       553.6667091034468
-4108.967385826326        6000                     3.1                      516.0837744663656
-4108.967385826325        6000                     0.7247449231296129       91.85626988297761
-4110.023084031308        6000                     0                        0.0014991177752015899
-4108.967385826325        6000                     0                        0.0027328558983030207
-4110.023084031307        5999.999999999999        5.492523555585461        949.3013472412239
-4110.023084031307        5999.999999999999        6.199999999999999        1066.288251596006
-4108.967385826325        6000                     6.2                      994.7921023541361
-4108.967385826326        6000                     3.824744923128786        602.0129782414442
-4110.023084031307        5999.999999999999        8.59252355558546         1430.2447227151592
-4110.023084031307        5999.999999999999        9.299999999999999        1537.8646274856574
-4108.967385826325        6000                     9.299999999999999        1436.1249837039793
-4108.967385826325        6000                     6.924744923128531        1074.7953638814308
-4110.023084031307        5999.999999999999        11.69252355558546        1870.1429316006447
-4110.023084031306        6000                     12.399999999999999       1968.395836791235
-4108.967385826325        6000                     12.399999999999999       1840.0824185311503
-4108.967385826325        6000                     10.024744923128532       1510.202302983309
-4110.023084031306        6000                     14.792523555586513       2268.9959739192414
-4110.023084031306        6000                     15.499999999999996       2357.8818795349907
-4108.967385826326        6000                     15.499999999999996       2206.664406857037
-4108.967385826325        6000                     13.12474492312853        1908.233795565522
-4113.593318282114        6000.000000000001        0.6490348219802966       115.91776162758084
-4113.593318282115        6000.000000000001        3.1                      680.7621145455823
-4113.593318282114        6000                     0                        0.0017535060990342363
-4113.593318282115        6000.000000000001        3.749034821979443        788.085227903322
-4113.593318282114        6000.000000000001        6.2                      1308.0691726850653
-4113.593318282114        6000.000000000001        6.849034821979443        1406.799054486243
-4113.593318282114        6000.000000000001        9.299999999999999        1881.9211744486565
-4113.5933182821145       6000                     9.949034821979216        1972.057824697287
-4113.5933182821145       6000                     12.4                     2402.318119858942
-4113.5933182821145       6000                     13.049034821979216       2483.861538559766
-4113.593318282114        6000                     15.499999999999996       2869.260008942527
-4114.538754902416        6000                     2.4664519740701643       568.4151834549274
-4114.538754902416        6000.000000000001        3.1                      714.4170889288131
-4114.538754902416        6000                     0                        0.001775630623950938
-4114.538754902415        6000.000000000001        5.5664519740705956       1237.6866313087369
-4114.538754902415        6000.000000000001        6.2                      1372.0929793056723
-4114.538754902415        6000.000000000001        8.666451974070593        1850.2172306066725
-4114.538754902415        6000                     9.299999999999999        1973.0276711665406
-4114.538754902415        6000                     11.76645197407038        2406.0066314072265
-4114.538754902415        6000                     12.4                     2517.221164534969
-4114.538754902416        6000.000000000001        14.866451974069538       2905.054833737478
-4114.538754902416        6000                     15.499999999999996       3004.673459439039
-4118.219521105842        6000                     0.5732117935828951       132.11142952484556
-4118.219521105844        6000                     3.0999999999999996       845.4368396351997
-4118.219521105842        6000                     0                        0.014081450281796455
-4118.219521105844        6000                     3.6732117935820146       967.0429383853464
-4118.219521105842        6000                     6.2                      1621.3394813287116
-4118.219521105842        6000                     6.773211793583094        1732.4540141232367
-4118.219521105842        6000                     9.299999999999999        2327.7079253745906
-4118.219521105842        6000                     9.873211793583094        2428.330892217741
-4118.219521105843        6000                     12.4                     2964.542171767684
-4118.219521105843        6000                     12.973211793582013       3054.6735726646025
-4118.219521105843        6000                     15.499999999999996       3531.84222053284
-4119.054526650441        6000                     2.5404854273950566       717.2090943911925
-4119.054526650441        6000                     3.1                      875.1583895812979
-4119.054526650441        6000                     0                        0.016887789331876263
-4119.054526650441        6000                     5.640485427394192        1533.0017451582355
-4119.054526650441        6000                     6.199999999999999        1677.8805280655527
-4119.054526650441        6000                     8.74048542739419         2276.361193478295
-4119.054526650441        6000                     9.299999999999999        2408.166415805407
-4119.054526650441        6000                     11.840485427394865       2947.284391044297
-4119.0545266504405       6000                     12.4                     3066.016052788919
-4119.0545266504405       6000                     14.940485427395053       3545.7713378737544
-4119.054526650441        6000                     15.499999999999996       3651.4294390404693
-4122.845994311937        6000                     0.49727583191142627      140.41902315612683
-4122.845994311938        6000                     3.1                      1010.1078223908278
-4122.845994311937        6000                     0                        0.03953884742959402
-4122.845994311938        6000                     3.59727583191052         1138.8707194158121
-4122.845994311937        6000                     6.2                      1934.6028012107108
-4122.845994311937        6000                     6.697275831910693        2051.7464017386205
-4122.845994311937        6000                     9.299999999999999        2773.4849378009085
-4122.845994311937        6000                     9.797275831911426        2879.009241830009
-4122.845994311938        6000                     12.4                     3526.7542319972645
-4122.845994311938        6000                     12.89727583191052        3620.659239531111
-4122.845994311937        6000                     15.5                     4194.4106837948275
-4123.570399270131        6000                     2.6146239100932283       772.4050470002526
-4123.570399270132        6000                     3.0999999999999996       915.7808838795378
-4123.570399270132        6000                     0                        0.04388268215363089
-4123.570399270131        6000                     5.714623910093393        1656.2290462322107
-4123.570399270131        6000                     6.199999999999999        1793.6809520081097
-4123.570399270132        6000                     8.814623910092504        2502.179115931451
-4123.570399270132        6000                     9.299999999999999        2633.700206164909
-4123.570399270132        6000                     11.914623910093393       3310.2483714590635
-4123.570399270132        6000                     12.399999999999999       3435.838646112238
-4123.570399270132        6000                     15.014623910092505       4080.4368127568687
-4123.570399270132        6000                     15.5                     4200.096271826479
-4127.4731997730205       6000                     0.4207100383862728       108.00935679064341
-4127.47319977302         6000                     3.1                      1223.275106896761
-4127.4731997730205       6000                     0                        0.03560072826209816
-4127.47319977302         6000                     3.5207100383872065       1332.9335916020764
-4127.47319977302         6000                     6.2                      2360.7370120040973
-4127.47319977302         6000                     6.62071003838814         2472.074258152049
-4127.473199773018        6000                     9.3                      3412.385716355466
-4127.473199773018        6000                     9.720710038389074        3525.4017239077457
-4127.473199773018        6000                     12.4                     4378.22121986745
-4127.473199773018        6000                     12.820710038389073       4492.9159888186905
-4127.473199773019        6000                     15.5                     5258.243522574966
-4128.086035800774        6000.000000000001        2.6894511058899493       1119.529655858334
-4128.086035800774        6000.000000000001        3.1                      1290.4175588099752
-4128.086035800773        6000.000000000001        0                        0.03428657851117199
-4128.086035800774        6000                     5.789451105889035        2322.1188995538246
-4128.086035800775        6000                     6.2                      2479.6054330843126
-4128.086035800775        6000.000000000001        8.88945110588798         3423.483000417057
-4128.086035800775        6000                     9.299999999999999        3567.5636236993237
-4128.086035800775        6000                     11.989451105887841       4423.617417575555
-4128.086035800775        6000.000000000001        12.4                     4554.292130602324
-4128.086035800774        6000                     15.089451105888894       5322.522151062441
-4128.086035800774        6000                     15.5                     5439.790953839579
-4132.601771309902        6000                     33.76438614615793        8697.276250256065
-4132.601771309901        6000                     34.1                     8689.54287317865
-4132.1007592783835       6000                     34.1                     8521.09913265521
-4132.100759278383        6000                     31.343935821975535       8584.607034394416
-4132.601771309901        6000                     36.864386146158274       8480.818527347054
-4132.601771309902        6000                     37.2                     8455.478583501837
-4132.1007592783835       6000                     37.2                     8289.104984756721
-4132.1007592783835       6000                     34.443935821975415       8497.20115674046
-4132.601771309902        6000                     39.96438614615816        8101.729231862229
-4132.601771309902        6000                     40.300000000000004       8058.782721249279
-4132.1007592783835       6000                     40.300000000000004       7896.437771399469
-4132.1007592783835       6000                     37.54393582197553        8249.122213912658
-4132.601771309902        6000                     43.06438614615899        7560.008363806795
-4132.601771309902        6000                     43.400000000000006       7499.455286427017
-4132.100759278385        6000                     43.400000000000006       7343.09749259007
-4132.1007592783835       6000                     40.64393582197554        7840.370205052635
-4132.601771309901        6000                     46.164386146160155       6855.655923195566
-4132.601771309901        6000                     46.5                     6777.496279050741
-4132.100759278385        6000.000000000001        46.50000000000001        6629.084148344085
-4132.100759278385        6000                     43.74393582197446        7270.945131030211
-4136.728630757946        6000                     31.267017323270622       10143.187259928458
-4136.728630757948        6000                     34.10000000000001        10076.984682729968
-4136.728630757948        6000                     34.367017323269735       10056.824001339975
-4136.728630757949        6000                     37.20000000000001        9825.867256458567
-4136.728630757949        6000                     37.46701732326983        9791.698636252953
-4136.728630757949        6000                     40.300000000000004       9395.98772368941
-4136.72863075795         6000                     40.56701732326865        9347.811164669121
-4136.728630757951        6000.000000000001        43.40000000000001        8787.346084426208
-4136.728630757951        6000                     43.66701732326758        8725.161586592452
-4136.728630757951        6000                     46.50000000000001        7999.942338677219
-4137.117604325915        6000                     33.839452606261275       10213.842057115111
-4137.117604325915        6000                     34.10000000000001        10207.75355000199