% Model:              20230907_silksimulation_80kPa.mph
% Version:            COMSOL 6.1.0.357
% Date:               Oct 2 2023, 21:12
% Dimension:          3
% Nodes:              8620
% Expressions:        1
% Description:        サーフェス
% x                       y                        z                        sqrt((ux^2+vy^2+wz^2))
-75.219295476671          1960                     1.6369200948116673       289.4972114117154
-75.21929547667065        1960                     2.583333333333333        434.39882909576147
-74.31307241607497        1960                     2.583333333333333        365.5056155987586
-74.31307241607459        1960                     1.1071501381094206       145.0733604586336
-75.21929547667156        1960                     0                        38.15110188948236
-74.3130724160743         1960                     0                        43.786597033296914
-75.21929547667006        1959.9999999999998       4.22025342814664         704.808070460479
-75.2192954766696         1959.9999999999998       5.166666666666666        854.9349438822801
-74.31307241607571        1960                     5.166666666666666        724.5789844553948
-74.31307241607536        1960                     3.6904834714405617       485.1884703520577
-75.21929547666902        1960                     6.803586761481814        1118.1587591039852
-75.21929547666868        1960                     7.749999999999998        1264.789576007852
-74.31307241607624        1960                     7.749999999999998        1082.0281536957118
-74.31307241607588        1960                     6.27381680477225         847.3094404235089
-75.2192954766681         1960                     9.386920094816787        1520.547165142171
-75.21929547666777        1960                     10.333333333333332       1663.6502682102
-74.313072416077          1960                     10.333333333333332       1437.2935166988354
-74.31307241607662        1960                     8.857150138103389        1207.5330485722725
-75.21929547666699        1960                     11.970253428152109       1911.958045121094
-75.21929547666664        1960                     12.916666666666668       2051.5588680885803
-74.31307241607777        1960                     12.916666666666668       1790.3535860758807
-74.31307241607728        1960                     11.440483471434806       1565.5638221468735
-75.21929547666626        1960                     14.553586761486732       2292.4874295956847
-75.21929547666592        1960                     15.499999999999996       2428.553137623888
-74.3130724160783         1960                     15.499999999999996       2141.1912992105927
-74.31307241607804        1960                     14.023816804765854       1921.4229686758763
-76.90119385073433        1960                     0.6259116442244723       123.26700508581766
-76.9011938507353         1960                     2.5833333333333335       543.535884254111
-76.90119385073415        1960                     0                        27.436129011984896
-76.90119385073554        1960                     3.209244977554696        642.8224901052968
-76.90119385073614        1960                     5.166666666666667        1063.5486423813982
-76.90119385073632        1960                     5.792578310886068        1160.5231266408082
-76.90119385073669        1960                     7.749999999999998        1561.4203100221675
-76.90119385073689        1960                     8.375911644217934        1656.0617360808956
-76.90119385073766        1960                     10.333333333333334       2037.068682926769
-76.90119385073783        1960                     10.959244977548813       2129.3938714191036
-76.90119385073841        1960                     12.916666666666666       2490.5559841233544
-76.9011938507386         1959.9999999999998       13.542578310880184       2580.589127753777
-76.90119385073916        1960                     15.499999999999996       2921.912823366153
-77.45993046590964        1960                     2.0694420308137915       468.87935148467017
-77.45993046590945        1959.9999999999998       2.5833333333333335       579.5017893156028
-77.45993046591096        1960                     0                        24.55910734273061
-77.45993046590868        1960                     4.652775364148734        1024.3054756270865
-77.45993046590849        1960                     5.166666666666667        1132.0213388134955
-77.45993046590795        1960                     7.236108697483247        1555.8612737334936
-77.45993046590775        1960                     7.749999999999998        1658.6778700163018
-77.4599304659067         1959.9999999999998       9.819442030818621        2061.4892796478357
-77.4599304659065         1960                     10.333333333333334       2159.414289973979
-77.4599304659057         1960                     12.402775364153564       2541.24517502263
-77.4599304659055         1960                     12.916666666666666       2634.291097073836
-77.4599304659047         1960                     14.986108697488506       2995.2147390857754
-77.4599304659045         1960                     15.499999999999996       3083.339001900191
-79.86408496296508        1959.9999999999998       0.005587392986220694     19.51894648242421
-79.86408496296626        1960                     2.5833333333333326       731.1611780833309
-79.86408496296507        1959.9999999999998       0                        18.31618039118125
-79.86408496296625        1960                     2.5889207263168807       732.3323418201675
-79.86408496296684        1960                     5.166666666666665        1420.142265493794
-79.86408496296683        1960                     5.172254059648875        1421.2601609041894
-79.864084962968          1960                     7.749999999999998        2067.4403345134333
-79.864084962968          1959.9999999999998       7.755587392979536        2068.5050451098964
-79.8640849629686         1959.9999999999998       10.33333333333333        2673.052517710974
-79.8640849629686         1959.9999999999998       10.338920726311528       2674.064179377511
-79.86408496296978        1960                     12.916666666666668       3237.027364569598
-79.86408496296977        1960                     12.922254059642194       3237.986134006351
-79.86408496297067        1960                     15.499999999999996       3759.3973832335655
-79.86947221935486        1960                     2.578927970478433        730.2811488954843
-79.86947221935486        1960                     2.5833333333333326       731.4943592800779
-79.86947221935627        1960                     0                        18.31259244351581
-79.86947221935417        1960                     5.162261303812821        1419.619679455805
-79.86947221935415        1960                     5.166666666666665        1420.774283380949
-79.86947221935274        1959.9999999999998       7.745594637148263        2067.2507640939452
-79.86947221935274        1959.9999999999998       7.749999999999998        2068.3366193852835
-79.86947221935205        1959.9999999999998       10.328927970482649       2673.161308338465
-79.86947221935206        1960                     10.33333333333333        2674.178463768355
-79.86947221935065        1960                     12.912261303818095       3237.3997967610862
-79.86947221935065        1960                     12.916666666666668       3238.3483170724458
-79.8694722193496         1960.0000000000002       15.495594637153005       3760.030094700268
-79.8694722193496         1960                     15.499999999999996       3760.878721252332
-79.88873848137237        1959.9999999999998       2.5641332445780134       726.2552699020821
-79.8887384813723         1960                     2.5833333333333326       732.6553756207667
-82.43901393116987        1960                     0.5779861080917688       218.77947919798336
-82.439013931169          1960                     2.583333333333333        887.2365060264342
-82.43901393117012        1960                     0                        25.893425684874334
-79.88873848138292        1960                     0                        18.371115869674718
-79.88873848136703        1960                     5.1474665779159565       1416.8330766260715
-79.88873848136696        1960                     5.166666666666665        1422.9740278120878
-82.43901393116877        1960                     3.161319441426655        1074.4769729802972
-82.43901393116761        1960                     5.166666666666666        1715.8666863884607
-79.8887384813564         1960                     7.730799911258479        2065.741819318363
-79.88873848135636        1960                     7.749999999999998        2071.4538220814065
-82.43901393116735        1959.9999999999998       5.744652774761944        1889.9812959284504
-82.43901393116678        1960                     7.749999999999999        2486.5696266199598
-79.8887384813511         1959.9999999999998       10.314133244596404       2672.8087687282414
-79.88873848135103        1959.9999999999998       10.33333333333333        2678.0914847054332
-82.43901393116653        1959.9999999999998       8.327986108096427        2647.533107212293
-82.43901393116538        1959.9999999999998       10.333333333333332       3199.2847148093524
-79.88873848134048        1960                     12.897466577938932       3238.0817444262148
-79.88873848134045        1960                     12.916666666666668       3242.9353130655277
-82.43901393116505        1959.9999999999998       10.911319441431832       3347.102311945682
-82.43901393116448        1960                     12.916666666666664       3854.0317611460177
-79.88873848133254        1960                     15.480799911279133       3761.6243204469765
-79.88873848133248        1960                     15.499999999999996       3766.017926335161
-82.43901393116423        1960                     13.494652774766317       3988.7154951286657
-82.43901393116337        1960                     15.499999999999996       4450.854008014734
-83.22785157277761        1960                     1.8198222398040458       638.0432270532435
-83.22785157277792        1960                     2.583333333333333        933.9247745255557
-83.2278515727769         1959.9999999999998       0                        31.42859769438599
-83.22785157277886        1960                     4.403155573134844        1515.9762268373217
-83.22785157277914        1959.9999999999998       5.166666666666666        1804.1476672966085
-83.22785157277961        1959.9999999999998       6.986488906466606        2345.5425432233283
-83.22785157277991        1959.9999999999998       7.749999999999998        2611.5895072196495
-83.22785157278088        1960                     9.569822239797407        3112.2957359033653
-83.22785157278118        1960                     10.333333333333332       3356.139206865612
-83.22785157278165        1960                     12.15315557312917        3816.17000554916
-83.22785157278194        1960                     12.916666666666664       4037.8016776660143
-83.22785157278265        1960                     14.73648890646045        4457.1810082061365
-83.22785157278294        1959.9999999999998       15.499999999999996       4656.616817805967
-85.1602642107278         1960                     1.2295050578502698       465.95136356195474
-85.16026421072698        1960                     2.583333333333333        921.8332718803206
-85.16026421072837        1960                     0                        47.725775464151994
-85.16026421072641        1960                     3.8128383911853962       1347.9725277258665
-85.1602642107258         1960                     5.166666666666666        1810.5716853710098
-85.16026421072527        1960                     6.396171724520256        2221.5456494044956
-85.16026421072463        1960                     7.749999999999998        2668.07206147571
-85.16026421072408        1960                     8.979505057855114        3063.7225495076254
-85.16026421072347        1960                     10.333333333333332       3494.034191954438
-85.16026421072289        1960                     11.562838391189974       3874.3358755624727
-85.16026421072229        1960                     12.916666666666664       4288.408743860229
-85.16026421072172        1960                     14.146171724524834       4653.359553901275
-85.16026421072111        1959.9999999999998       15.499999999999996       5051.211543632988
-97.491000341638          1960                     0.7871486732581077       794.995115639824
-97.4910003416377         1960                     2.583333333333333        2568.614923015898
-94.75747336774859        1959.9999999999998       2.583333333333333        2217.8002923878485
-94.75747336774852        1960                     2.2203215331378474       1851.990845275529
-97.49100034163813        1960                     0                        2.6843948371051916
-94.75747336774788        1960                     0                        10.323260695809351
-97.49100034163759        1960                     3.370482006591963        3256.3068960297996
-97.49100034163729        1960                     5.166666666666666        4795.450363305778
-94.75747336774896        1960                     5.166666666666666        4163.383626691095
-94.7574733677489         1960                     4.803654866470535        3845.9190655958555
-97.49100034163718        1960                     5.953815339925818        5376.963407058444
-97.49100034163688        1960                     7.75                     6680.510991889411
-94.75747336774964        1960                     7.749999999999998        5836.800638167484
-94.75747336774958        1960.0000000000002       7.386988199802667        5568.400418895279
-97.49100034163673        1960                     8.537148673259674        7155.845454403289
-97.49100034163615        1960                     10.333333333333334       8223.798603559433
-94.75747336775004        1960                     10.333333333333332       7238.0521054632845
-94.75747336774997        1960                     9.970321533135355        7018.71598747987
-97.4910003416359         1960                     11.12048200659405        8592.955380607918
-97.4910003416359         1960                     12.916666666666668       9425.316160110764
-94.75747336775109        1959.9999999999998       12.916666666666668       8367.145822450853
-94.75747336775098        1959.9999999999998       12.553654866466935       8196.873283410026
-97.4910003416359         1960                     13.703815339927385       9688.296584602425
-97.4910003416356         1960                     15.5                     10285.065617881712
-94.75747336775142        1960                     15.499999999999996       9224.094493677407
-94.75747336775142        1960                     15.13698819979953        9102.883797975697
-98.69128223683374        1960                     1.6176599090049437       1599.2063580860427
-98.69128223683389        1960                     2.5833333333333335       2716.9968365030595
-98.6912822368335         1960                     0                        1.8685564765054654
-98.69128223683413        1959.9999999999998       4.200993242337636        4103.163157016439
-98.69128223683428        1960                     5.166666666666666        5062.77116032494
-98.69128223683451        1960                     6.78432657567033         6236.757729931158
-98.6912822368345         1960                     7.75                     7037.323836287227
-98.69128223683495        1960                     9.36765990900286         7999.131957960485
-98.69128223683511        1960                     10.333333333333334       8640.656122359691
-98.69128223683511        1960                     11.950993242335958       9390.287656777478
-98.69128223683511        1960                     12.916666666666668       9872.769908621787
-98.69128223683533        1959.9999999999995       14.534326575668887       10410.227471735985
-98.69128223683546        1960                     15.5                     10733.66566186169
-100.71761579375917       1959.9999999999998       1.2565661381450228       1458.0425585835753
-100.71761579375917       1959.9999999999998       2.5833333333333335       2962.598287907359
-100.71761579375938       1960                     0                        3.536688033644446
-100.71761579375897       1960                     3.8398994714786117       4211.271899991484
-100.71761579375897       1960                     5.166666666666667        5505.394078872125
-100.71761579375894       1960                     6.423232804811945        6547.1171244163725
-100.71761579375851       1960                     7.75                     7628.389341536196
-100.7176157937583        1959.9999999999998       9.006566138146074        8463.16176197975
-100.71761579375853       1960                     10.333333333333336       9331.58361160089
-100.71761579375853       1960                     11.589899471479137       9959.405445202749
-100.71761579375828       1959.9999999999998       12.916666666666668       10614.976902669414
-100.71761579375809       1960                     14.173232804812997       11035.84822678944
-100.71761579375786       1960                     15.5                     11478.568001459329
-102.64041859343571       1960                     1.0627464828757465       1207.092895071841
-102.64041859343592       1960                     2.583333333333333        3185.5808280602923
-102.64041859343571       1960                     0                        1.9369977688020241
-102.64041859343592       1960                     3.6460798162087054       4222.178506239602
-102.6404185934357        1960                     5.166666666666666        5907.350436061836
-102.64041859343601       1960                     6.22941314954189         6773.454338798207
-102.64041859343601       1960                     7.75                     8165.310711046333
-102.64041859343585       1960                     8.812746482875484        8860.920513342287
-102.64041859343584       1960                     10.333333333333332       9959.461943510592
-102.64041859343598       1960                     11.396079816208559       10484.577625616186
-102.64041859343598       1960                     12.916666666666668       11289.8049886151
-102.64041859343614       1960                     13.979413149541628       11644.426602237276
-102.64041859343614       1960                     15.5                     12156.34060129834
-103.99477518220249       1960                     1.699640229469725        2211.4604525322134
-103.99477518220247       1960                     2.5833333333333335       3340.3112469762373
-103.99477518220277       1960                     0                        0
-103.99477518220277       1960                     4.28297356280271         5223.916911878558
-103.99477518220277       1960                     5.166666666666667        6186.374441466356
-103.99477518220277       1960                     6.866306896136044        7742.125816801157
-103.9947751822029        1959.9999999999998       7.749999999999999        8538.190308665296
-103.99477518220289       1959.9999999999998       9.449640229469196        9766.088082403434
-103.99477518220273       1960                     10.333333333333334       10395.759849643191
-103.99477518220273       1960                     12.032973562802711       11295.804999718097
-103.99477518220273       1960                     12.916666666666668       11759.084486319794
-103.99477518220273       1960                     14.616306896136045       12331.278451380249
-103.99477518220272       1960                     15.5                     12628.166308594682
-97.49100034163533        1959.9999999999998       16.2871486732614         10521.937755089188
-97.49100034163476        1960                     18.083333333333336       11058.172745863705
-94.75747336775217        1959.9999999999998       18.08333333333333        9952.939203518079
-94.75747336775207        1959.9999999999998       17.720321533131752       9843.66051354099
-97.49100034163476        1960                     18.87048200659546        11250.581478667347
-97.49100034163445        1960                     20.666666666666668       11686.227941198382
-94.7574733677525         1960                     20.666666666666668       10545.92501712011
-94.7574733677525         1960                     20.303654866464356       10457.161002389857
-97.49100034163432        1960                     21.453815339929314       11834.170946516895
-97.49100034163433        1960                     23.25                    12169.228783494997
-94.75747336775318        1960                     23.250000000000004       11003.052585940575
-94.75747336775314        1960                     22.88698819979658        10934.803270873657
-97.4910003416342         1960                     24.037148673262813       12272.706044569075
-97.49100034163362        1960                     25.833333333333336       12507.175210979534
-94.75747336775358        1960                     25.83333333333334        11324.321750485748
-94.75747336775353        1960                     25.47032153312927        11276.587146836959
-97.49100034163337        1960                     26.620482006597186       12566.186729498877
-97.49100034163337        1960                     28.41666666666667        12700.067217504911
-94.75747336775399        1960                     28.416666666666668       11509.732457670612
-94.75747336775389        1960                     28.053654866461954       11482.512568263242
-97.49100034163337        1960                     29.20381533993052        12714.613011367303
-97.49100034163278        1960                     31.000000000000004       12747.904844474731
-94.75747336775464        1960                     31                       11559.284739698884
-94.75747336775464        1960                     30.636988199793997       11552.579559921745
-98.69128223683595        1960                     17.11765990900118        11216.601463832863
-98.69128223683607        1960                     18.083333333333336       11525.670515462405
-98.69128223683632        1960                     19.700993242333873       11918.017601260794
-98.69128223683632        1960                     20.66666666666667        12168.706911639843
-98.69128223683633        1960                     22.284326575667208       12470.462985012935
-98.69128223683646        1960                     23.25                    12662.77255627211
-98.69128223683693        1960                     24.8676599089995         12873.93757667963
-98.6912822368368         1960                     25.833333333333336       13007.86741286761
-98.6912822368368         1960                     27.45099324233307        13128.441373251117
-98.69128223683705        1959.9999999999998       28.41666666666667        13203.991480435117
-98.69128223683754        1960                     30.034326575665126       13233.974401964813
-98.69128223683754        1960                     31.000000000000007       13251.144788640086
-100.71761579375764       1960                     16.756566138146855       11880.73749910267
-100.71761579375766       1960                     18.083333333333332       12302.091172581066
-100.71761579375766       1960                     19.339899471480187       12628.296378896384
-100.71761579375766       1960                     20.66666666666667        12970.125492562813
-100.71761579375743       1960                     21.92323280481378        13220.365055127844
-100.717615793757         1960                     23.250000000000007       13482.669610415292
-100.71761579375722       1959.9999999999998       24.506566138147395       13656.943534498572
-100.7176157937572        1959.9999999999998       25.83333333333333        13839.72353478292
-100.71761579375678       1959.9999999999998       27.089899471481235       13938.031828278785
-100.71761579375679       1959.9999999999998       28.416666666666668       14041.28727889729
-100.71761579375679       1959.9999999999998       29.67323280481457        14063.629952860709
-100.71761579375658       1960                     31                       14087.360861453537
-102.64041859343615       1960                     16.56274648287496        12493.846202518775
-102.64041859343638       1960                     18.083333333333336       13008.848283564832
-102.64041859343638       1960                     19.146079816207923       13282.65493902866
-102.64041859343615       1960                     20.666666666666668       13699.888921111316
-102.64041859343646       1960                     21.72941314954111        13909.996048107987
-102.64041859343646       1960                     23.250000000000004       14229.461841056855
-102.64041859343645       1960                     24.312746482874438       14375.869442289983
-102.64041859343645       1960                     25.833333333333332       14597.566986474609
-102.64041859343646       1960                     26.896079816207774       14680.275066219598
-102.64041859343646       1960                     28.416666666666668       14804.204320741374
-102.64041859343662       1960                     29.479413149540843       14823.2128851181
-102.64041859343662       1960                     31                       14849.37382113064
-103.99477518220246       1960                     17.199640229469725       13203.81133337071
-103.99477518220246       1960                     18.083333333333332       13500.912499182552
-103.99477518220274       1960                     19.78297356280271        13967.27695632339
-103.99477518220274       1960                     20.666666666666668       14208.024641476568
-103.99477518220274       1960                     22.366306896136045       14565.108430193646
-103.99477518220274       1960                     23.250000000000004       14749.502591157066
-103.99477518220274       1960                     24.949640229469377       14997.305644798522
-103.99477518220274       1960                     25.833333333333336       15125.346252890176
-103.99477518220276       1960                     27.53297356280271        15263.868525741473
-103.99477518220276       1960                     28.416666666666664       15335.555561387038
-103.99477518220276       1960                     30.116306896136045       15364.797021205042
-103.99477518220276       1960                     31                       15380.130470703125
-55.267205635892196       1960                     0                        176.0719005359989
-55.26720563589127        1960                     2.4600580484194254       760.9691445315445
-55.13265283593368        1960                     2.413237990803327        751.8084725001239
-55.13265283593381        1960                     0                        178.0430482114308
-55.13265283593368        1960                     2.583333333333333        793.5856064181709
-55.26720563589123        1960                     2.583333333333333        788.0648443525068
-55.634544183269476       1960                     2.583333333333333        808.2336692044198
-55.63454418327009        1960                     2.1003686968844475       699.2441952124584
-55.63454418327272        1960                     0                        170.62552045559994
-55.267205635890605       1960                     5.043391381753279        1411.143624868701
-55.13265283593359        1960                     4.996571324137363        1404.8058926106992
-55.13265283593359        1960                     5.166666666666666        1450.4711922277713
-55.26720563589056        1960                     5.166666666666666        1440.3314409182517
-55.63454418326711        1960                     5.166666666666666        1477.3396791433154
-55.63454418326772        1960                     4.68370203021996         1364.701084172972
-55.26720563589024        1960                     7.626724715086892        1974.1722628610687
-55.13265283593354        1960                     7.5799046574710465       1974.151905120661
-55.13265283593353        1960                     7.75                     2013.6243506818944
-55.267205635890214       1960                     7.75                     1999.1000970575938
-55.63454418326582        1960                     7.75                     2046.1769975026014
-55.63454418326623        1960                     7.267035363554663        1951.4624841169443
-55.26720563588928        1960                     10.210058048420976       2441.1558989751106
-55.1326528359334         1959.9999999999998       10.163237990805454       2447.2669047378236
-55.13265283593339        1960                     10.333333333333332       2480.294167153028
-55.26720563588925        1959.9999999999998       10.333333333333332       2461.6621997311026
-55.63454418326257        1960                     10.333333333333332       2512.374766323318
-55.63454418326318        1960                     9.850368696890799        2435.9811474752887
-55.26720563588862        1959.9999999999998       12.793391381754832       2813.4022787863173
-55.13265283593331        1960                     12.746571324139468       2825.33989573235
-55.1326528359333         1960                     12.916666666666668       2852.0096517978936