% Model:              20230907_silksimulation_60kPa.mph
% Version:            COMSOL 6.1.0.357
% Date:               Oct 7 2023, 16:25
% Table:              テーブル 3 - Cregion
% せん断速度 (1/s)            spf.sr*spf.mu (Pa)
52282.15904701147        72.4500170729534
