% Model:              20230907_silksimulation_60kPa.mph
% Version:            COMSOL 6.1.0.357
% Date:               Oct 7 2023, 16:21
% Dimension:          3
% Nodes:              8620
% Expressions:        1
% Description:        サーフェス
% x                       y                        z                        sqrt((ux^2+vy^2+wz^2))
-75.219295476671          1960                     1.6369200948116673       242.39018729066052
-75.21929547667065        1960                     2.583333333333333        363.0766917541103
-74.31307241607497        1960                     2.583333333333333        312.64170667103326
-74.31307241607459        1960                     1.1071501381094206       126.9055618869577
-75.21929547667156        1960                     0                        31.200029741132607
-74.3130724160743         1960                     0                        35.154252333477075
-75.21929547667006        1959.9999999999998       4.22025342814664         586.1035781763474
-75.2192954766696         1959.9999999999998       5.166666666666666        709.586701092107
-74.31307241607571        1960                     5.166666666666666        613.7930368160839
-74.31307241607536        1960                     3.6904834714405617       416.17697369677956
-75.21929547666902        1960                     6.803586761481814        923.3790616768376
-75.21929547666868        1960                     7.749999999999998        1042.123861269232
-74.31307241607624        1960                     7.749999999999998        907.1530047338815
-74.31307241607588        1960                     6.27381680477225         716.6285390801823
-75.2192954766681         1960                     9.386920094816787        1246.4693254077029
-75.21929547666777        1960                     10.333333333333332       1360.443612636276
-74.313072416077          1960                     10.333333333333332       1192.3187107182885
-74.31307241607662        1960                     8.857150138103389        1009.099517899015
-75.21929547666699        1960                     11.970253428152109       1555.359089192932
-75.21929547666664        1960                     12.916666666666668       1664.5824437234132
-74.31307241607777        1960                     12.916666666666668       1469.2889500167157
-74.31307241607728        1960                     11.440483471434806       1293.378465515414
-75.21929547666626        1960                     14.553586761486732       1850.1288706752389
-75.21929547666592        1960                     15.499999999999996       1954.5216158408443
-74.3130724160783         1960                     15.499999999999996       1738.0023037627998
-74.31307241607804        1960                     14.023816804765854       1569.497287139313
-76.90119385073433        1960                     0.6259116442244723       103.438863270941
-76.9011938507353         1960                     2.5833333333333335       442.49008982751747
-76.90119385073415        1960                     0                        23.622684280868278
-76.90119385073554        1960                     3.209244977554696        524.1558161213259
-76.90119385073614        1960                     5.166666666666667        861.7914316318186
-76.90119385073632        1960                     5.792578310886068        940.3234615427502
-76.90119385073669        1960                     7.749999999999998        1259.185020931195
-76.90119385073689        1960                     8.375911644217934        1334.5620661949215
-76.90119385073766        1960                     10.333333333333334       1634.5877355441403
-76.90119385073783        1960                     10.959244977548813       1706.822745198344
-76.90119385073841        1960                     12.916666666666666       1988.0480150337362
-76.9011938507386         1959.9999999999998       13.542578310880184       2057.161128034672
-76.90119385073916        1960                     15.499999999999996       2319.547702375242
-77.45993046590964        1960                     2.0694420308137915       380.0510428284496
-77.45993046590945        1959.9999999999998       2.5833333333333335       468.73660519322857
-77.45993046591096        1960                     0                        21.59641716505267
-77.45993046590868        1960                     4.652775364148734        825.6946064884798
-77.45993046590849        1960                     5.166666666666667        911.901834304412
-77.45993046590795        1960                     7.236108697483247        1249.0113680751479
-77.45993046590775        1960                     7.749999999999998        1330.5613589758043
-77.4599304659067         1959.9999999999998       9.819442030818621        1647.7570526414615
-77.4599304659065         1960                     10.333333333333334       1724.6531587293775
-77.4599304659057         1960                     12.402775364153564       2021.9725338855155
-77.4599304659055         1960                     12.916666666666666       2094.2247112176774
-77.4599304659047         1960                     14.986108697488506       2371.7288820292742
-77.4599304659045         1960                     15.499999999999996       2439.260500392088
-79.86408496296508        1959.9999999999998       0.005587392986220694     18.018395122591283
-79.86408496296626        1960                     2.5833333333333326       579.4131337386968
-79.86408496296507        1959.9999999999998       0                        17.054142396953537
-79.86408496296625        1960                     2.5889207263168807       580.3504402419785
-79.86408496296684        1960                     5.166666666666665        1122.6990305496777
-79.86408496296683        1960                     5.172254059648875        1123.5857002493326
-79.864084962968          1960                     7.749999999999998        1630.4028489169805
-79.864084962968          1959.9999999999998       7.755587392979536        1631.2389182592854
-79.8640849629686         1959.9999999999998       10.33333333333333        2102.509047752695
-79.8640849629686         1959.9999999999998       10.338920726311528       2103.2946249872416
-79.86408496296978        1960                     12.916666666666668       2539.0571217275065
-79.86408496296977        1960                     12.922254059642194       2539.792339420547
-79.86408496297067        1960                     15.499999999999996       2940.043094389922
-79.86947221935486        1960                     2.578927970478433        578.7035136246867
-79.86947221935486        1960                     2.5833333333333326       579.6569118365744
-79.86947221935627        1960                     0                        17.051346421102718
-79.86947221935417        1960                     5.162261303812821        1122.2541970851578
-79.86947221935415        1960                     5.166666666666665        1123.162587465642
-79.86947221935274        1959.9999999999998       7.745594637148263        1630.212138066373
-79.86947221935274        1959.9999999999998       7.749999999999998        1631.0619135471984
-79.86947221935205        1959.9999999999998       10.328927970482649       2102.5481448226537
-79.86947221935206        1960                     10.33333333333333        2103.3393344809897
-79.86947221935065        1960                     12.912261303818095       2539.301650913035
-79.86947221935065        1960                     12.916666666666668       2540.0343105625584
-79.8694722193496         1960.0000000000002       15.495594637153005       2940.527723477768
-79.8694722193496         1960                     15.499999999999996       2941.1429123598127
-79.88873848137237        1959.9999999999998       2.5641332445780134       575.5206217023831
-79.8887384813723         1960                     2.5833333333333326       580.5063608089292
-82.43901393116987        1960                     0.5779861080917688       172.84643627027395
-82.439013931169          1960                     2.583333333333333        693.5803875821044
-82.43901393117012        1960                     0                        22.12258215345306
-79.88873848138292        1960                     0                        17.090525824684267
-79.88873848136703        1960                     5.1474665779159565       1119.9908882759669
-79.88873848136696        1960                     5.166666666666665        1124.7756039020892
-82.43901393116877        1960                     3.161319441426655        839.7695334688175
-82.43901393116761        1960                     5.166666666666666        1339.5076507764365
-79.8887384813564         1960                     7.730799911258479        1628.9163260277653
-79.88873848135636        1960                     7.749999999999998        1633.3533076201002
-82.43901393116735        1959.9999999999998       5.744652774761944        1475.0254786895566
-82.43901393116678        1960                     7.749999999999999        1938.4446245286285
-79.8887384813511         1959.9999999999998       10.314133244596404       2102.1347291327006
-79.88873848135103        1959.9999999999998       10.33333333333333        2106.223645274964
-82.43901393116653        1959.9999999999998       8.327986108096427        2063.2694397732807
-82.43901393116538        1959.9999999999998       10.333333333333332       2490.334999338371
-79.88873848134048        1960                     12.897466577938932       2539.684944601215
-79.88873848134045        1960                     12.916666666666668       2543.425924054453
-82.43901393116505        1959.9999999999998       10.911319441431832       2604.47157735156
-82.43901393116448        1960                     12.916666666666664       2995.196999124471
-79.88873848133254        1960                     15.480799911279133       2941.6217969339195
-79.88873848133248        1960                     15.499999999999996       2944.956360249458
-82.43901393116423        1960                     13.494652774766317       3098.65609123206
-82.43901393116337        1960                     15.499999999999996       3453.046529582003
-83.22785157277761        1960                     1.8198222398040458       498.4572441714805
-83.22785157277792        1960                     2.583333333333333        727.7255147742349
-83.2278515727769         1959.9999999999998       0                        25.899068863877588
-83.22785157277886        1960                     4.403155573134844        1181.2302886640823
-83.22785157277914        1959.9999999999998       5.166666666666666        1404.217738101061
-83.22785157277961        1959.9999999999998       6.986488906466606        1824.7635953638007
-83.22785157277991        1959.9999999999998       7.749999999999998        2030.3074066894678
-83.22785157278088        1960                     9.569822239797407        2417.8629349131243
-83.22785157278118        1960                     10.333333333333332       2605.903184193706
-83.22785157278165        1960                     12.15315557312917        2960.4805876720357
-83.22785157278194        1960                     12.916666666666664       3131.0125394853794
-83.22785157278265        1960                     14.73648890646045        3452.634440278107
-83.22785157278294        1959.9999999999998       15.499999999999996       3605.6537304071862
-85.1602642107278         1960                     1.2295050578502698       364.9688131019833
-85.16026421072698        1960                     2.583333333333333        721.2896491019628
-85.16026421072837        1960                     0                        37.1540424641603
-85.16026421072641        1960                     3.8128383911853962       1053.6185545304356
-85.1602642107258         1960                     5.166666666666666        1413.6332246435272
-85.16026421072527        1960                     6.396171724520256        1732.5971376046095
-85.16026421072463        1960                     7.749999999999998        2078.5431867185807
-85.16026421072408        1960                     8.979505057855114        2384.022563455149
-85.16026421072347        1960                     10.333333333333332       2715.789607588198
-85.16026421072289        1960                     11.562838391189974       3007.7666280681206
-85.16026421072229        1960                     12.916666666666664       3325.3360300874206
-85.16026421072172        1960                     14.146171724524834       3603.8109313771242
-85.16026421072111        1959.9999999999998       15.499999999999996       3907.1886978468874
-97.491000341638          1960                     0.7871486732581077       593.7332996535649
-97.4910003416377         1960                     2.583333333333333        1919.813885687095
-94.75747336774859        1959.9999999999998       2.583333333333333        1661.9977878012455
-94.75747336774852        1960                     2.2203215331378474       1389.373636843386
-97.49100034163813        1960                     0                        3.2677226653592677
-94.75747336774788        1960                     0                        11.38213568054168
-97.49100034163759        1960                     3.370482006591963        2434.017515465902
-97.49100034163729        1960                     5.166666666666666        3586.8166479848946
-94.75747336774896        1960                     5.166666666666666        3122.210729258435
-94.7574733677489         1960                     4.803654866470535        2884.8277493140376
-97.49100034163718        1960                     5.953815339925818        4022.6390259663635
-97.49100034163688        1960                     7.75                     5001.019191111816
-94.75747336774964        1960                     7.749999999999998        4380.715836502832
-94.75747336774958        1960.0000000000002       7.386988199802667        4179.551347698197
-97.49100034163673        1960                     8.537148673259674        5358.460132231867
-97.49100034163615        1960                     10.333333333333334       6162.4226909155805
-94.75747336775004        1960                     10.333333333333332       5437.509617299593
-94.75747336774997        1960                     9.970321533135355        5272.563637540996
-97.4910003416359         1960                     11.12048200659405        6441.482981896886
-97.4910003416359         1960                     12.916666666666668       7071.029913183137
-94.75747336775109        1959.9999999999998       12.916666666666668       6292.598195282086
-94.75747336775098        1959.9999999999998       12.553654866466935       6163.870270451844
-97.4910003416359         1960                     13.703815339927385       7271.71084184662
-97.4910003416356         1960                     15.5                     7726.841725892873
-94.75747336775142        1960                     15.499999999999996       6945.989796387736
-94.75747336775142        1960                     15.13698819979953        6853.481146234017
-98.69128223683374        1960                     1.6176599090049437       1195.3078755449246
-98.69128223683389        1960                     2.5833333333333335       2029.399529430757
-98.6912822368335         1960                     0                        1.0278842847977883
-98.69128223683413        1959.9999999999998       4.200993242337636        3067.6206997047693
-98.69128223683428        1960                     5.166666666666666        3784.2722832114086
-98.69128223683451        1960                     6.78432657567033         4665.410177382579
-98.6912822368345         1960                     7.75                     5264.620924102317
-98.69128223683495        1960                     9.36765990900286         5988.676767819998
-98.69128223683511        1960                     10.333333333333334       6470.4467519092395
-98.69128223683511        1960                     11.950993242335958       7037.422327536429
-98.69128223683511        1960                     12.916666666666668       7401.751652219424
-98.69128223683533        1959.9999999999995       14.534326575668887       7811.64946169791
-98.69128223683546        1960                     15.5                     8058.535560083643
-100.71761579375917       1959.9999999999998       1.2565661381450228       1086.3554592506634
-100.71761579375917       1959.9999999999998       2.5833333333333335       2211.236944897214
-100.71761579375938       1960                     0                        1.007864528142654
-100.71761579375897       1960                     3.8398994714786117       3143.7676431591776
-100.71761579375897       1960                     5.166666666666667        4112.021608907313
-100.71761579375894       1960                     6.423232804811945        4891.7344134337845
-100.71761579375851       1960                     7.75                     5702.354276715441
-100.7176157937583        1959.9999999999998       9.006566138146074        6329.249284001512
-100.71761579375853       1960                     10.333333333333336       6982.235033653207
-100.71761579375853       1960                     11.589899471479137       7456.312378017812
-100.71761579375828       1959.9999999999998       12.916666666666668       7951.664123580935
-100.71761579375809       1960                     14.173232804812997       8272.92399771493
-100.71761579375786       1960                     15.5                     8610.640519613022
-102.64041859343571       1960                     1.0627464828757465       901.8415713823634
-102.64041859343592       1960                     2.583333333333333        2377.0742071168024
-102.64041859343571       1960                     0                        0.8064486732569708
-102.64041859343592       1960                     3.6460798162087054       3152.649982852734
-102.6404185934357        1960                     5.166666666666666        4410.981992633133
-102.64041859343601       1960                     6.22941314954189         5060.292144237688
-102.64041859343601       1960                     7.75                     6101.723703948003
-102.64041859343585       1960                     8.812746482875484        6624.768222479466
-102.64041859343584       1960                     10.333333333333332       7449.2995743564525
-102.64041859343598       1960                     11.396079816208559       7846.078547557558
-102.64041859343598       1960                     12.916666666666668       8453.710034741185
-102.64041859343614       1960                     13.979413149541628       8724.223606646134
-102.64041859343614       1960                     15.5                     9114.955148289377
-103.99477518220249       1960                     1.699640229469725        1648.9454283826644
-103.99477518220247       1960                     2.5833333333333335       2492.3954263658134
-103.99477518220277       1960                     0                        0
-103.99477518220277       1960                     4.28297356280271         3898.8995699521056
-103.99477518220277       1960                     5.166666666666667        4618.950885928474
-103.99477518220277       1960                     6.866306896136044        5783.013941313587
-103.9947751822029        1959.9999999999998       7.749999999999999        6379.6666665161065
-103.99477518220289       1959.9999999999998       9.449640229469196        7301.288904461137
-103.99477518220273       1960                     10.333333333333334       7774.5431643238435
-103.99477518220273       1960                     12.032973562802711       8453.72496837434
-103.99477518220273       1960                     12.916666666666668       8803.58094021491
-103.99477518220273       1960                     14.616306896136045       9240.322872249153
-103.99477518220272       1960                     15.5                     9466.780815189728
-97.49100034163533        1959.9999999999998       16.2871486732614         7906.98888335749
-97.49100034163476        1960                     18.083333333333336       8314.78046548463
-94.75747336775217        1959.9999999999998       18.08333333333333        7501.070758698732
-94.75747336775207        1959.9999999999998       17.720321533131752       7417.95526339975
-97.49100034163476        1960                     18.87048200659546        8461.171135467728
-97.49100034163445        1960                     20.666666666666668       8792.586874605538
-94.7574733677525         1960                     20.666666666666668       7952.822451193155
-94.7574733677525         1960                     20.303654866464356       7885.283220183848
-97.49100034163432        1960                     21.453815339929314       8905.217772284032
-97.49100034163433        1960                     23.25                    9160.25748580987
-94.75747336775318        1960                     23.250000000000004       8301.242367001065
-94.75747336775314        1960                     22.88698819979658        8249.279447760771
-97.4910003416342         1960                     24.037148673262813       9239.128569293727
-97.49100034163362        1960                     25.833333333333336       9417.792163424034
-94.75747336775358        1960                     25.83333333333334        8546.330207186531
-94.75747336775353        1960                     25.47032153312927        8509.943624376343
-97.49100034163337        1960                     26.620482006597186       9462.903422434883
-97.49100034163337        1960                     28.41666666666667        9565.190864302998
-94.75747336775399        1960                     28.416666666666668       8688.085850167088
-94.75747336775389        1960                     28.053654866461954       8667.275612822676
-97.49100034163337        1960                     29.20381533993052        9576.542314779668
-97.49100034163278        1960                     31.000000000000004       9602.45362047308
-94.75747336775464        1960                     31                       8726.509312263444
-94.75747336775464        1960                     30.636988199793997       8721.275416912562
-98.69128223683595        1960                     17.11765990900118        8425.79357742705
-98.69128223683607        1960                     18.083333333333336       8660.516166583035
-98.69128223683632        1960                     19.700993242333873       8958.99213418985
-98.69128223683632        1960                     20.66666666666667        9149.461011833573
-98.69128223683633        1960                     22.284326575667208       9379.15205025804
-98.69128223683646        1960                     23.25                    9525.367206596973
-98.69128223683693        1960                     24.8676599089995         9686.27323137705
-98.6912822368368         1960                     25.833333333333336       9788.23466500061
-98.6912822368368         1960                     27.45099324233307        9880.355646535876
-98.69128223683705        1959.9999999999998       28.41666666666667        9938.063362718018
-98.69128223683754        1960                     30.034326575665126       9961.39931549749
-98.69128223683754        1960                     31.000000000000007       9974.853325924916
-100.71761579375764       1960                     16.756566138146855       8916.067901793032
-100.71761579375766       1960                     18.083333333333332       9236.08794008383
-100.71761579375766       1960                     19.339899471480187       9483.93233135234
-100.71761579375766       1960                     20.66666666666667        9743.655095267626
-100.71761579375743       1960                     21.92323280481378        9933.915083489026
-100.717615793757         1960                     23.250000000000007       10133.340560545395
-100.71761579375722       1959.9999999999998       24.506566138147395       10266.016143884375
-100.7176157937572        1959.9999999999998       25.83333333333333        10405.14433074059
-100.71761579375678       1959.9999999999998       27.089899471481235       10480.235516059416
-100.71761579375679       1959.9999999999998       28.416666666666668       10559.066416450129
-100.71761579375679       1959.9999999999998       29.67323280481457        10576.573218956408
-100.71761579375658       1960                     31                       10595.106843198439
-102.64041859343615       1960                     16.56274648287496        9371.292052883438
-102.64041859343638       1960                     18.083333333333336       9761.977916741596
-102.64041859343638       1960                     19.146079816207923       9970.017017252098
-102.64041859343615       1960                     20.666666666666668       10286.675655509654
-102.64041859343646       1960                     21.72941314954111        10446.416358404944
-102.64041859343646       1960                     23.250000000000004       10689.047749176649
-102.64041859343645       1960                     24.312746482874438       10800.490051780023
-102.64041859343645       1960                     25.833333333333332       10969.094180878754
-102.64041859343646       1960                     26.896079816207774       11032.23808618186
-102.64041859343646       1960                     28.416666666666668       11126.814944205506
-102.64041859343662       1960                     29.479413149540843       11141.660460472212
-102.64041859343662       1960                     31                       11162.210041194434
-103.99477518220246       1960                     17.199640229469725       9903.471038505857
-103.99477518220246       1960                     18.083333333333332       10128.902801930448
-103.99477518220274       1960                     19.78297356280271        10482.848885595049
-103.99477518220274       1960                     20.666666666666668       10665.594182315968
-103.99477518220274       1960                     22.366306896136045       10936.796101866465
-103.99477518220274       1960                     23.250000000000004       11076.85492115755
-103.99477518220274       1960                     24.949640229469377       11265.312660736428
-103.99477518220274       1960                     25.833333333333336       11362.684995600997
-103.99477518220276       1960                     27.53297356280271        11468.398544699026
-103.99477518220276       1960                     28.416666666666664       11523.08439043852
-103.99477518220276       1960                     30.116306896136045       11546.053742096183
-103.99477518220276       1960                     31                       11558.053095512634
-55.267205635892196       1960                     0                        114.04085607889184
-55.26720563589127        1960                     2.4600580484194254       529.256306993915
-55.13265283593368        1960                     2.413237990803327        522.6152532794747
-55.13265283593381        1960                     0                        115.30222212541779
-55.13265283593368        1960                     2.583333333333333        552.6340604599029
-55.26720563589123        1960                     2.583333333333333        548.4534191836087
-55.634544183269476       1960                     2.583333333333333        562.117772425314
-55.63454418327009        1960                     2.1003686968844475       485.7021335275581
-55.63454418327272        1960                     0                        110.38385849896997
-55.267205635890605       1960                     5.043391381753279        988.2933437070154
-55.13265283593359        1960                     4.996571324137363        984.1029099100067
-55.13265283593359        1960                     5.166666666666666        1016.7356121410733
-55.26720563589056        1960                     5.166666666666666        1008.9544792049455
-55.63454418326711        1960                     5.166666666666666        1033.727364713246
-55.63454418326772        1960                     4.68370203021996         955.0027075369454
-55.26720563589024        1960                     7.626724715086892        1389.9333481940628
-55.13265283593354        1960                     7.5799046574710465       1390.463655236882
-55.13265283593353        1960                     7.75                     1418.9833751871167
-55.267205635890214       1960                     7.75                     1407.7971198877003
-55.63454418326582        1960                     7.75                     1438.9746894723435
-55.63454418326623        1960                     7.267035363554663        1372.0154185211554
-55.26720563588928        1960                     10.210058048420976       1728.4653681197026
-55.1326528359334         1959.9999999999998       10.163237990805454       1733.5486349683035
-55.13265283593339        1960                     10.333333333333332       1757.8032011797297
-55.26720563588925        1959.9999999999998       10.333333333333332       1743.4304601285519
-55.63454418326257        1960                     10.333333333333332       1776.5247305175476
-55.63454418326318        1960                     9.850368696890799        1721.5576575452537
-55.26720563588862        1959.9999999999998       12.793391381754832       2004.766192226876
-55.13265283593331        1960                     12.746571324139468       2014.165166889987
-55.1326528359333         1960                     12.916666666666668       2034.2115624533833
-55.26720563588858        1960                     12.916666666666668       2016.8578036703177