% Model:              20230907_silksimulation_80kPa.mph
% Version:            COMSOL 6.1.0.357
% Date:               Oct 2 2023, 21:12
% Dimension:          3
% Nodes:              315
% Expressions:        2
% Description:        せん断速度, 
% Length unit:        µm
% x                       y                        z                        spf.sr (1/s)             spf.sr*spf.mu (Pa)
-4146.149575646598        6000                     6.0898986800078365       5995.929512802608        7.195115415363128
-4132.100759278381        6000                     15.5                     10967.974252248257       13.161569102697909
-4146.149575646599        6000                     15.5                     15259.876196569658       18.311851435883586
-4146.149575646597        6000                     0                        1.4901161193847656E-8    1.7881393432617183E-11
-4132.100759278387        6000.000000000001        9.64393582197414         5147.994808802445        6.1775937705629325
-4132.100759278386        6000                     0                        9823.98100318176         11.78877720381811
-4146.149575646598        6000                     21.58989868000204        16664.688673657885       19.99762640838946
-4132.100759278383        6000                     31                       12151.891486441233       14.582269783729478
-4146.149575646597        6000                     31                       18835.206884652245       22.602248261582687
-4132.100759278381        6000                     25.143935821977692       10801.019746828351       12.961223696194022
-4123.570399270132        6000                     5.71462391009245         13055.11601297966        15.66613921557559
-4108.967385826326        6000                     15.499999999999996       8914.833705719417        10.6978004468633
-4123.570399270131        6000                     15.499999999999998       8458.904813945614        10.150685776734736
-4123.570399270132        6000                     0                        15789.764869045404       18.947717842854484
-4108.967385826326        6000                     10.024744923127702       11425.303481763496       13.710364178116196
-4108.967385826325        6000                     0                        18891.65460806669        22.669985529680023
-4146.149575646598        6000                     37.08989868000603        17430.395230384776       20.91647427646173
-4132.100759278385        6000                     46.5                     10967.973915823026       13.16156869898763
-4146.149575646597        6000                     46.5                     15259.8783846611         18.311854061593323
-4132.100759278383        5999.999999999999        40.643935821975795       12373.121532382364       14.847745838858835
-4123.570399270129        6000                     31                       8221.83594845945         9.86620313815134
-4123.570399270131        6000                     21.214623910093504       8414.180637580306        10.097016765096367
-4100.992012992219        6000                     15.499999999999996       9125.468305422264        10.950561966506715
-4100.992012992221        6000                     0                        20585.980180288167       24.703176216345796
-4100.992012992221        6000                     5.345031102275508        16609.870928167387       19.931845113800865
-4085.849836972722        6000                     15.499999999999996       9141.473470818153        10.969768164981781
-4085.849836972722        6000                     10.392827214664544       12866.723108516964       15.440067730220356
-4085.849836972722        6000                     0                        20589.082890737227       24.70689946888467
-4078.4091620573927       6000                     4.990768447690028        16877.077341768105       20.252492810121726
-4062.7557057690938       6000.000000000001        15.499999999999996       8727.755498955139        10.473306598746165
-4078.4091620573927       6000                     15.499999999999996       9127.146514554495        10.952575817465394
-4078.4091620573936       6000                     0                        20590.589057203266       24.708706868643915
-4062.7557057690938       6000                     10.740183405319742       12193.712344591135       14.632454813509359
-4062.755705769093        6000                     0                        17270.796637165033       20.72495596459804
-4055.8188694238243       6000.000000000001        4.65792659888636         13567.83447080231        16.281401364962772
-4039.677036948222        6000                     15.5                     13295.320188384192       15.954384226061029
-4055.818869423823        6000                     15.499999999999996       8459.884799988416        10.1518617599861
-4055.8188694238243       6000                     0                        15799.378296871697       18.959253956246034
-4039.677036948223        6000                     11.07595286795393        15418.042242335196       18.501650690802233
-4039.6770369482206       5999.999999999999        0                        4509.680743829651        5.41161689259558
-4146.149575646598        6000                     52.58989868001088        9263.948049048719        11.11673765885846
-4132.100759278389        6000                     61.99999999999999        9823.983861097227        11.788780633316671
-4146.149575646597        6000                     61.999999999999986       1.4901161193847656E-8    1.7881393432617183E-11
-4132.100759278386        6000                     56.14393582197242        15589.687807468303       18.70762536896196
-4123.570399270129        6000                     46.5                     8458.90330668896         10.150683968026753
-4123.570399270129        6000                     36.714623910094836       8320.676544070115        9.984811852884137
-4055.818869423823        6000                     20.157926598887727       8437.870261141143        10.125444313369368
-4039.677036948222        6000                     31                       15773.293993915446       18.927952792698534
-4055.8188694238224       6000                     31                       8217.810402361007        9.86137248283321
-4039.6770369482215       6000                     26.575952867954392       15876.128721809744       19.051354466171695
-4033.2300000000114       6000                     15.500000000000002       15265.913079900947       18.319095695881135
-4033.2300000000114       6000                     0                        1.4901161193847656E-8    1.7881393432617186E-11
-4033.2300000000114       6000                     4.331074432896797        4265.985661614574        5.119182793937488
-4123.570399270128        6000                     52.214623910095895       11107.30728192789        13.328768738313467
-4108.967385826329        6000                     62                       18891.658252191486       22.66998990262978
-4123.570399270127        6000                     62                       15789.769261713513       18.94772311405621
-4108.967385826329        6000                     56.52474492312383        16306.30462293798        19.56756554752557
-4108.967385826328        6000                     46.5                     8914.831694224757        10.697798033069708
-4055.8188694238224       6000                     35.657926598888785       8293.840133231071        9.952608159877283
-4039.6770369482206       6000                     46.499999999999986       13295.319888990152       15.954383866788184
-4055.8188694238215       6000.000000000001        46.5                     8459.883720712634        10.151860464855158
-4039.677036948221        6000.000000000001        42.07595286795531        13217.384816205937       15.860861779447124
-4033.2300000000114       5999.999999999999        30.999999999999996       18842.81368361423        22.61137642033707
-4033.2300000000114       6000                     19.83107443289726        16265.449818603527       19.518539782324233
-4100.992012992215        6000                     62                       20585.983547683078       24.703180257219692
-4100.9920129922175       6000.000000000001        46.5                     9125.466111111988        10.950559333334386
-4100.992012992217        6000                     51.84503110228147        13032.472996337088       15.638967595604505
-4085.849836972725        6000.000000000001        62.00000000000001        20589.08642504969        24.70690371005962
-4085.849836972724        6000                     56.89282721466312        16794.861920565483       20.153834304678576
-4085.849836972724        6000                     46.5                     9141.470947131225        10.96976513655747
-4078.4091620573927       6000.000000000001        51.490768447691735       12771.58076746628        15.325896920959533
-4062.7557057690956       6000                     62                       17270.799326195534       20.72495919143464
-4078.4091620573927       6000.000000000001        62                       20590.592675592023       24.708711210710426
-4078.4091620573927       6000                     46.5                     9127.143924810402        10.952572709772479
-4062.7557057690956       6000                     57.24018340531619        13724.53169384214        16.469438032610565
-4062.7557057690947       6000                     46.5                     8727.753940867851        10.473304729041422
-4055.8188694238206       6000                     51.15792659889015        10605.197863375808       12.726237436050969
-4039.677036948222        6000                     62                       4509.681495276158        5.411617794331389
-4055.81886942382         6000                     62                       15799.380713410344       18.95925685609241
-4039.677036948222        6000                     57.57595286795347        2362.0590364938757       2.8344708437926505
-4033.230000000013        6000                     46.49999999999999        15265.913349548082       18.319096019457696
-4033.230000000012        6000                     35.33107443289591        17843.277135456727       21.41193256254807
-4033.2300000000114       6000                     62                       1.4901161193847656E-8    1.7881393432617186E-11
-4033.230000000013        6000                     50.83107443289439        10999.927497406          13.199912996887202
4121.138094429105         6000                     6.196910151159779        14836.46215169381        17.80375458203257
4130.763099910517         6000                     15.499999999999996       9305.340352272344        11.166408422726814
4121.138094429105         6000                     15.499999999999996       8885.999017846816        10.663198821416177
4121.138094429104         6000                     0                        16344.512064912069       19.61341447789448
4130.763099910517         6000                     7.32542933878301         11217.40922518049        13.460891070216586
4130.763099910518         6000                     0                        13014.30457945766        15.617165495349191
4141.504049386933         6000                     10.404415414761493       14713.128123675273       17.655753748410326
4146.764842039905         6000                     15.5                     15544.840480211917       18.6538085762543
4141.504049386933         6000                     15.499999999999998       13484.09594259171        16.180915131110048
4141.504049386945         6000                     0                        4278.276005394172        5.133931206473006
4146.764842039905         6000                     4.0043783042730094       4015.5899052760556       4.818707886331266
4146.764842039905         6000                     0                        1.4901161193847656E-8    1.7881393432617186E-11
4141.504049386933         6000                     25.904415414761036       15885.217549026936       19.06226105883232
4146.7648420399055        6000                     31                       19076.198504609532       22.891438205531436
4141.504049386933         6000                     31.000000000000007       16373.150506837066       19.647780608204478
4146.764842039905         6000                     19.50437830428295        16457.080899096807       19.748497078916166
4100.770494185839         6000                     2.0486610482362266       19195.73544751658        23.03488253701989
4114.72728107836          6000.000000000001        15.499999999999996       8606.868375818636        10.328242050982363
4100.770494185841         6000                     15.499999999999996       9131.879212530575        10.958255055036691
4100.770494185839         6000.000000000001        0                        20521.152273745152       24.62538272849418
4114.72728107836          6000                     10.621563617921398       11677.888567965598       14.013466281558715
4114.72728107836          6000.000000000001        0                        18562.9881482034         22.27558577784408
4141.504049386933         6000.000000000001        41.40441541476057        14002.649073163491       16.803178887796186
4146.7648420399055        6000                     46.5                     15544.840601673412       18.653808722008094
4141.504049386932         6000                     46.5                     13484.095388011547       16.180914465613853
4146.7648420399055        6000.000000000001        35.00437830428402        18163.95821563463        21.796749858761558
4130.763099910517         6000                     22.825429338781397       10097.965287797033       12.117558345356437
4130.763099910517         6000                     31                       10879.116010391463       13.054939212469753
4098.645038581186         6000                     13.88271457350171        10362.647749898508       12.435177299878209
4098.645038581186         6000                     15.499999999999996       9212.649589650715        11.055179507580856
4098.645038581188         6000                     0                        20819.42292761071        24.98330751313285
4121.138094429105         6000                     52.696910151162186       10301.99730380889        12.362396764570667
4130.763099910515         6000                     62                       13014.307850292687       15.617169420351223
4121.138094429106         6000                     62                       16344.515986079328       19.613419183295193
4121.138094429105         6000                     46.5                     8885.996719461107        10.663196063353327
4130.763099910515         6000                     53.82542933877818        11009.380945389523       13.211257134467425
4130.763099910515         6000                     46.5                     9305.33914861709         11.166406978340508
4141.504049386945         6000                     56.904415414773645       3018.6229449638386       3.622347533956606
4146.764842039905         6000                     62                       1.4901161193847656E-8    1.7881393432617186E-11
4141.504049386945         6000                     62                       4278.277071398812        5.133932485678574
4146.7648420399055        6000                     50.50437830428069        11529.250566494315       13.835100679793177
4130.763099910516         6000                     38.325429338779784       10179.346117460493       12.21521534095259
4080.402025103556         6000                     13.475518696720805       10393.293161734822       12.471951794081788
4082.514330893619         6000                     15.499999999999996       9224.618874808935        11.069542649770721
4080.402025103556         6000                     15.499999999999996       9145.14057509428         10.974168690113137
4080.402025103556         6000                     0                        20563.620048887376       24.676344058664846
4082.5143308936176        5999.999999999999        1.6074920682497982       19638.39444331155        23.56607333197386
4082.5143308936176        5999.999999999999        0                        20851.091419248092       25.02130970309771
4090.5562084990956        6000                     15.499999999999996       9222.411087442117        11.06689330493054
4090.5562084990925        6000                     7.7273791978686415       15016.81185061781        18.020174220741367
4090.556208499099         6000                     0                        20835.3130913216         25.00237570958592
4060.030347739528         6000                     9.459259589111957        10307.243179585272       12.368691815502325
4066.342971177306         6000                     15.499999999999996       8620.57577136223         10.344690925634673
4060.030347739528         6000                     15.499999999999996       8872.33976569428         10.646807718833134
4060.030347739528         6000                     0                        16495.965435603972       19.79515852272477
4066.342971177306         6000                     4.802728410433672        15514.580559483946       18.617496671380735
4066.342971177307         6000                     0                        18650.138830933174       22.38016659711981
4039.651735472796         6000                     5.462426110860372        3221.381346856646        3.8656576162279745
4050.1465200457314        6000                     15.499999999999996       9265.983083528638        11.119179700234364
4039.651735472788         6000                     15.499999999999998       13321.060343108662       15.985272411730392
4039.6517354727966        6000                     0                        4625.153039964651        5.5501836479575815
4050.1465200457314        6000                     7.981617843269894        11089.267183820255       13.307120620584305
4050.1465200457333        6000                     0                        13122.936905659819       15.747524286791782
4100.770494185843         6000                     48.54866104824175        10385.925358783701       12.463110430540443
4114.727281078356         6000.000000000001        62.00000000000001        18562.992760911802       22.27559131309416
4100.770494185843         6000                     62                       20521.156930459605       24.625388316551525
4100.770494185844         6000                     46.5                     9131.87502113252         10.958250025359021
4114.727281078357         6000.000000000001        57.12156361791936        15400.46800396167        18.480561604754
4114.727281078357         6000                     46.5                     8606.865706271648        10.328238847525974
4039.6517354727875        6000                     20.962426110852643       13859.783778936402       16.631740534723683
4050.146520045729         6000                     31                       10781.273242061203       12.93752789047344
4039.651735472791         6000                     31                       16148.46350193517        19.378156202322202
4050.1465200457296        6000                     23.481617843268268       10096.275390449202       12.115530468539042
4033.9400000000123        6000                     11.156770758280063       11189.166465249928       13.426999758299914
4033.940000000012         6000                     15.5                     15545.56224974802        18.654674699697622
4033.940000000012         6000                     0                        1.4901161193847656E-8    1.7881393432617186E-11
4098.645038581186         6000                     60.38271457349928        19601.124370529324       23.521349244635182
4098.645038581186         6000                     62.00000000000001        20819.427437982748       24.9833129255793
4098.645038581186         6000                     46.5                     9212.646798039832        11.055176157647798
4039.6517354727907        6000                     36.46242611085608        15642.698777847054       18.771238533416465
4050.146520045727         6000                     46.5                     9265.982487349867        11.11917898481984
4039.6517354727916        6000                     46.5                     13321.059875872947       15.985271851047534
4050.146520045728         6000                     38.98161784326718        10053.359444620293       12.064031333544351
4033.940000000012         5999.999999999999        26.656770758280274       18089.43114041151        21.70731736849381
4033.9400000000123        6000                     31                       19079.845218016424       22.895814261619705
4080.4020251035563        6000                     59.97551869672248        19244.53417533117        23.0934410103974
4082.5143308936176        5999.999999999999        62                       20851.093981633298       25.021312777959956
4080.402025103556         6000                     62                       20563.622430717165       24.676346916860595
4080.402025103556         5999.999999999999        46.5                     9145.13699928922         10.974164399147062
4082.514330893619         6000                     48.10749206825063        10369.349489327391       12.443219387192869
4082.514330893619         6000                     46.5                     9224.614041161494        11.06953684939379
4090.556208499087         6000                     62                       20835.316656591785       25.002379987910142
4090.5562084990906        6000                     54.22737919786613        14972.807490720435       17.967368988864518
4090.5562084990906        6000                     46.5                     9222.407346044647        11.066888815253575
4060.030347739529         6000                     55.959259589115575       14969.349308821977       17.96321917058637
4066.342971177305         6000                     62                       18650.140520403795       22.38016862448455
4060.0303477395296        6000                     62                       16495.966905931782       19.795160287118136
4060.030347739529         6000                     46.5                     8872.337964439397        10.646805557327276
4066.342971177305         6000                     51.30272841043269        11665.373361513444       13.998448033816134
4066.342971177306         6000                     46.5                     8620.573027967177        10.344687633560612
4039.651735472791         6000                     51.96242611085608        14691.87323334057        17.63024788000868
4050.146520045726         6000                     62                       13122.93815947088        15.747525791365053
4039.651735472795         6000                     62                       4625.153666447117        5.5501843997365405
4050.146520045727         6000                     54.48161784326609        11206.455633911388       13.447746760693665
4033.9400000000132        6000                     42.156770758279094       16535.976062651225       19.84317127518147
4033.940000000013         5999.999999999999        46.49999999999999        15545.56208146879        18.65467449776255
4033.9400000000114        6000                     57.656770758274696       4356.395880941111        5.227675057129333
4033.940000000013         6000                     61.99999999999999        1.4901161193847656E-8    1.788139343261719E-11
-4108.967385826327        6000                     31                       4311.190903137424        5.173429083764908
-4108.967385826327        6000                     25.524744923127006       4436.677060601722        5.324012472722066
-4108.967385826328        6000                     41.02474492312523        8864.227886715278        10.637073464058334
-4100.992012992218        6000.000000000001        31                       2239.5147000322368       2.687417640038684
-4100.992012992218        6000                     20.845031102278305       6796.138731319969        8.15536647758396
-4085.849836972724        6000.000000000001        31                       2334.284805625082        2.801141766750097
-4085.849836972723        6000                     25.892827214664187       4598.0445730327865       5.517653487639342
-4078.4091620573927       6000.000000000001        20.490768447690705       6953.899316744024        8.344679180092829
-4062.7557057690947       6000.000000000001        31                       6393.559501338572        7.672271401606286
-4078.4091620573936       6000.000000000001        31.000000000000004       2198.938547916094        2.638726257499313
-4062.7557057690938       6000                     26.240183405318668       8558.224074197977        10.269868889037571
-4100.992012992218        6000                     36.345031102279364       4637.947707415449        5.565537248898538
-4085.849836972724        6000.000000000001        41.392827214663484       6946.685393974062        8.336022472768873
-4078.4091620573927       6000                     35.990768447691046       4474.516974274604        5.369420369129525
-4062.7557057690947       6000                     41.74018340531726        6643.399004942399        7.972078805930878
4121.138094429106         6000                     21.696910151160047       9568.794165289863        11.482552998347833
4121.138094429105         6000                     31                       7608.224692663946        9.129869631196733
4121.138094429106         6000                     37.19691015116193        7017.479736636753        8.420975683964102
4100.77049418584          6000.000000000001        17.5486610482389         8776.206864709413        10.531448237651295
4114.727281078357         6000                     31                       5449.540151884365        6.539448182261237
4100.770494185843         6000.000000000001        31                       2146.363167545357        2.5756358010544282
4114.727281078358         6000                     26.121563617920344       6471.958441655246        7.766350129986295
4100.770494185843         6000.000000000001        33.04866104824024        2573.402069841019        3.088082483809223
4114.727281078357         6000                     41.6215636179204         7675.950729909896        9.211140875891875
4098.645038581187         6000.000000000001        29.382714573500547       2467.0183369567417       2.9604220043480898
4098.645038581187         6000.000000000001        31                       1673.2221006654026       2.007866520798483
4098.645038581186         6000                     44.882714573499605       8487.155826581282        10.184586991897536
4080.4020251035554        6000                     28.975518696722137       2478.567808073385        2.974281369688062
4082.5143308936176        5999.999999999999        31                       1575.4689832618405       1.8905627799142088
4080.402025103556         6000                     31                       2041.3965358170494       2.449675842980459
4082.514330893619         6000                     17.107492068250632       8492.30570541311         10.19076684649573
4090.5562084990906        6000                     31                       1660.0892708497317       1.992107125019678
4090.556208499094         6000                     23.227379197868654       5513.627869559264        6.616353443471116
4060.030347739528         6000                     24.95925958911299        6898.016818071714        8.277620181686055
4066.342971177306         6000                     31                       5345.0186480301545       6.414022377636185
4060.0303477395287        6000                     31                       7454.308951308785        8.945170741570541
4066.342971177306         6000                     20.302728410433346       7668.330783045472        9.201996939654567
4080.402025103556         6000                     44.47551869672115        8778.901771166562        10.534682125399874
4082.5143308936176        5999.999999999999        32.6074920682498         2375.7434656435626       2.8508921587722744
4090.556208499087         6000                     38.727379197863584       5436.976025875775        6.52437123105093
4060.0303477395287        6000                     40.45925958911454        9520.34412727728         11.424412952732736
4066.342971177306         6000                     35.80272841043302        6388.0218242855335       7.665626189142639
22.50089571417227         6000                     1.6598760239827683       38096.375434066125       45.72053317688131
40.35999999998603         6000                     15.5                     33878.063093352335       40.65522873458646
40.35999999998603         6000                     1.661554044840844        3631.628476435421        4.358120599264866
22.50089571417227         6000                     0                        34468.41457733642        41.366813889340236
40.35999999998604         6000                     0                        1.4901161193847656E-8    1.788260302786737E-11
20.35902250146645         6000                     0                        38602.281417156824       46.32801884207403
20.35902250146645         6000                     1.659695530227174        36266.206502393194       43.524414734457665
20.35902250146645         6000                     15.499999999999996       16969.39934250476        20.365642918544797
22.50089571417227         6000                     15.499999999999996       18480.337788602556       22.17864293956778
22.50089571417227         6000                     17.159876023982765       19498.136486644245       23.40013775778526
40.35999999998603         6000                     31.000000000000007       41817.8463876333         50.184036415525455