% Model:              20230907_silksimulation_90kPa.mph
% Version:            COMSOL 6.1.0.357
% Date:               Oct 2 2023, 20:20
% Table:              テーブル 3 - Cregion
% せん断速度 (1/s)                                     spf.sr*spf.mu (Pa)
78209.57064415711                                 111.39918697621017
