% Model:              20230907_silksimulation_90kPa.mph
% Version:            COMSOL 6.1.0.357
% Date:               Oct 2 2023, 20:18
% Dimension:          3
% Nodes:              6683
% Expressions:        1
% Description:        サーフェス
% x                       y                        z                        sqrt((ux^2+vy^2+wz^2))
-4132.601771309903        6000                     2.764386146159211        1779.5546686695586
-4132.601771309903        6000                     3.1                      1995.594862068554
-4132.100759278386        6000                     3.1000000000000005       1934.235745157061
-4132.100759278386        6000                     0.3439358219746913       160.06613861730273
-4132.601771309903        6000                     0                        0.02797325570707806
-4132.100759278386        6000                     0                        0.029127051472591568
-4132.601771309904        6000                     5.864386146157331        3560.9945000514695
-4132.601771309904        6000                     6.2                      3751.0391208484257
-4132.100759278384        6000                     6.2                      3642.4093997370146
-4132.100759278386        6000                     3.4439358219748115       2081.722203632022
-4132.601771309904        6000                     8.964386146156048        5102.286762639154
-4132.601771309904        6000                     9.299999999999999        5266.332776769004
-4132.100759278383        6000                     9.3                      5124.520964232468
-4132.1007592783835       6000                     6.543935821976852        3777.341042246659
-4132.601771309904        6000                     12.064386146156048       6403.428422369132
-4132.601771309903        6000                     12.400000000000002       6541.475829831299
-4132.100759278383        6000                     12.4                     6380.570438639696
-4132.100759278383        6000                     9.643935821977692        5246.897790769546
-4132.601771309904        6000                     15.164386146154284       7464.419479288452
-4132.6017713099045       6000                     15.5                     7576.468280089503
-4132.10075927838         6000                     15.5                     7410.557823013136
-4132.100759278382        6000                     12.743935821977812       6490.392449209252
-4136.7286307579525       6000                     0.2670173232666731       171.9024916953299
-4136.7286307579525       6000.000000000001        3.100000000000001        2500.9970921806503
-4136.728630757953        6000                     0                        0.019020559541218313
-4136.7286307579525       6000                     3.3670173232679406       2652.198257941959
-4136.72863075795         6000                     6.200000000000002        4645.800272239792
-4136.72863075795         6000                     6.467017323268928        4776.316718698096
-4136.728630757947        6000                     9.299999999999999        6434.409540360682
-4136.728630757947        6000                     9.567017323271795        6544.241267516709
-4136.728630757947        6000                     12.400000000000004       7866.824896554076
-4136.728630757946        6000                     12.667017323271985       7955.971904411079
-4136.728630757944        6000                     15.5                     8943.046340853181
-4137.117604325917        6000                     2.8394526062636407       2334.431932710773
-4137.117604325917        6000                     3.100000000000001        2548.6319872641047
-4137.117604325916        6000                     0                        0.018175825791738185
-4137.117604325916        6000.000000000001        5.939452606262499        4546.786964293079
-4137.117604325916        6000                     6.200000000000002        4730.13284782314
-4137.1176043259175       6000                     9.03945260625951         6392.012400622257
-4137.1176043259175       6000                     9.299999999999999        6544.502581837671
-4137.117604325917        6000                     12.139452606259338       7870.1067104175145
-4137.117604325917        6000                     12.400000000000004       7991.741189317203
-4137.1176043259175       6000                     15.239452606257316       8981.069893707756
-4137.1176043259175       6000                     15.5                     9071.84867029508
-4141.356772793955        6000.000000000001        0.1899864671615069       156.20026181456046
-4141.3567727939535       6000                     3.1                      3067.756967093472
-4141.356772793955        6000.000000000001        0                        0.009439688863902118
-4141.3567727939535       6000                     3.2899864671625867       3201.449483380049
-4141.356772793951        6000                     6.2                      5649.189517087271
-4141.356772793951        6000                     6.389986467164748        5760.382610944405
-4141.356772793949        6000.000000000001        9.299999999999999        7744.297650024598
-4141.356772793949        6000                     9.489986467165826        7832.991321452002
-4141.356772793945        6000                     12.4                     9353.081365910546
-4141.356772793945        6000                     12.589986467167922       9419.275614910315
-4141.356772793943        6000                     15.5                     10475.540664756663
-4141.63353910657         6000                     2.914623452681359        2916.1779361166477
-4141.63353910657         6000                     3.1                      3101.6485621474035
-4141.633539106571        6000.000000000001        0                        0.008866366452004504
-4141.63353910657         6000                     6.014623452679313        5553.266201653959
-4141.63353910657         6000                     6.2                      5709.1910813838385
-4141.63353910657         6000.000000000001        9.114623452678195        7696.248954407376
-4141.63353910657         6000.000000000001        9.299999999999999        7822.627557744195
-4141.63353910657         6000                     12.21462345267609        9345.125664289442
-4141.63353910657         6000                     12.4                     9441.957991233608
-4141.633539106572        6000                     15.31462345267299        10499.896331310358
-4141.633539106572        6000                     15.5                     10567.182381862203
-4145.985185400748        6000                     0.11284324769522668      112.90083839367955
-4145.985185400745        6000.000000000001        3.1                      3634.5151065169543
-4145.985185400748        6000.000000000001        0                        3.226806399168383E-4
-4145.985185400745        6000                     3.2128432476973874       3729.430402328908
-4145.985185400742        6000                     6.2                      6652.576671563199
-4145.985185400742        6000                     6.312843247699548        6729.506424794057
-4145.985185400738        6000.000000000001        9.299999999999999        9054.184695140835
-4145.985185400738        6000.000000000001        9.412843247701707        9113.128905790061
-4145.985185400737        6000                     12.4                     10839.339177249949
-4145.985185400737        6000                     12.51284324770387        10880.297845317256
-4145.985185400732        6000                     15.5                     12008.040117891027
-4146.149575646597        6000.000000000001        2.98989868001017         3524.8467773389857
-4146.149575646598        6000.000000000001        3.1                      3654.6443903815057
-4146.149575646598        6000.000000000001        0                        0
-4146.149575646597        6000.000000000001        6.089898680008063        6580.473831745443
-4146.149575646597        6000.000000000001        6.2                      6688.213522806519
-4146.149575646597        6000.000000000001        9.189898680005916        9015.025628196741
-4146.149575646597        6000                     9.299999999999999        9100.707397275548
-4146.149575646598        6000.000000000001        12.289898680003809       10828.50216669261
-4146.149575646598        6000                     12.4                     10892.126013788235
-4146.149575646599        6000                     15.389898680000684       12020.903447232922
-4146.149575646599        6000                     15.5                     12062.469372345
-4132.601771309903        6000                     18.264386146155935       8296.15677275202
-4132.601771309902        6000                     18.6                     8383.52964454547
-4132.100759278382        6000                     18.6                     8208.736780540414
-4132.10075927838         6000                     15.843935821979493       7491.21504042444
-4132.601771309903        6000                     21.364386146155223       8941.097896076724
-4132.601771309904        6000                     21.700000000000003       9008.788773903181
-4132.100759278381        6000                     21.700000000000003       8827.302857302613
-4132.100759278382        6000                     18.943935821977696       8271.413214339198
-4132.601771309903        6000                     24.464386146155938       9404.23678415875
-4132.601771309903        6000                     24.8                     9452.245668016152
-4132.100759278381        6000                     24.8                     9266.256053155346
-4132.100759278381        6000                     22.043935821978533       8871.99850735877
-4132.601771309903        6000                     27.564386146155936       9685.573436991996
-4132.601771309902        6000                     27.900000000000002       9713.900326879522
-4132.100759278381        6000                     27.900000000000002       9525.59636809242
-4132.100759278381        6000                     25.143935821977692       9292.970919467658
-4132.601771309901        6000                     30.664386146158044       9785.107854570713
-4132.601771309901        6000                     31                       9793.75275048832
-4132.100759278383        6000                     31                       9605.323802110168
-4132.100759278381        6000                     28.243935821977573       9534.330450660678
-4136.728630757944        6000                     15.76701732327377        9012.56096325824
-4136.728630757946        6000                     18.600000000000005       9823.269092166296
-4136.728630757946        6000                     18.867017323271          9877.124547773952
-4136.728630757945        6000                     21.700000000000003       10503.657099314527
-4136.728630757945        6000                     21.967017323272973       10541.853388037705
-4136.728630757945        6000                     24.800000000000008       10984.210362205098
-4136.728630757945        6000                     25.06701732327279        11006.747484042622
-4136.728630757947        6000                     27.900000000000006       11264.928880831572
-4136.728630757946        6000                     28.167017323271892       11271.806835783198
-4136.728630757946        6000                     31                       11345.812655194546
-4137.117604325915        6000                     18.339452606260128       9884.408283954559
-4137.117604325915        6000.000000000001        18.600000000000005       9958.96704899828
-4137.1176043259175       6000                     21.43945260625837        10586.930467551412
-4137.1176043259175       6000                     21.700000000000003       10644.551078575669
-4137.117604325917        6000                     24.539452606258287       11087.918301931675
-4137.117604325917        6000                     24.800000000000004       11128.600758935214
-4137.117604325917        6000                     27.639452606259255       11387.37178708898
-4137.117604325917        6000                     27.900000000000006       11411.11609007136
-4137.117604325915        6000.000000000001        30.7394526062603         11485.290923024148
-4137.117604325915        6000.000000000001        31                       11492.097071985349
-4141.356772793943        6000                     15.689986467170831       10529.907573424973
-4141.356772793944        6000                     18.6                     11437.80829235695
-4141.356772793944        6000                     18.78998646716887        11479.824204193155
-4141.3567727939435       6000                     21.7                     12180.019108313876
-4141.3567727939435       6000                     21.889986467169884       12209.684023287291
-4141.356772793945        6000                     24.8                     12702.173112595374
-4141.356772793945        6000                     24.989986467168805       12719.487030705437
-4141.356772793945        6000                     27.900000000000006       13004.27030519847
-4141.356772793944        6000                     28.089986467168806       13009.23322644517
-4141.356772793945        6000                     31                       13086.31068612334
-4141.63353910657         6000                     18.414623452674846       11476.521358524486
-4141.63353910657         6000                     18.6                     11534.356242885126
-4141.633539106571        6000                     21.514623452673856       12235.660366034357
-4141.633539106571        6000                     21.7                     12280.264026407282
-4141.633539106571        6000                     24.614623452674845       12773.53329601312
-4141.633539106571        6000                     24.8                     12804.90573239776
-4141.633539106571        6000                     27.71462345267485        13090.140148458835
-4141.633539106571        6000                     27.900000000000002       13108.281360855257
-4141.63353910657         6000                     30.814623452675963       13185.48092337086
-4141.63353910657         6000                     31                       13190.390911779054
-4145.985185400732        6000                     15.61284324770699        12043.245629461911
-4145.985185400735        6000                     18.6                     13052.3537871079
-4145.985185400735        6000                     18.71284324770491        13079.505128356868
-4145.985185400733        6000                     21.700000000000003       13856.38833416661
-4145.985185400733        6000                     21.812843247705953       13875.485505093422
-4145.985185400735        6000                     24.8                     14420.143759070628
-4145.985185400735        6000.000000000001        24.91284324770483        14431.186759674867
-4145.985185400737        6000                     27.900000000000002       14743.620061816897
-4145.985185400737        6000                     28.012843247703792       14746.608892098648
-4145.985185400736        6000                     31                       14826.817242406072
-4146.149575646598        6000                     18.489898680002643       13072.503795950812
-4146.149575646598        6000                     18.6                     13109.69705526157
-4146.149575646598        6000                     21.589898680001667       13887.293366463848
-4146.149575646598        6000                     21.700000000000003       13915.927385697634
-4146.149575646598        6000                     24.68989868000268        14461.085584498787
-4146.149575646598        6000                     24.8                     14481.160363654984
-4146.149575646598        6000                     27.7898986800037         14793.88045005293
-4146.149575646598        6000                     27.900000000000002       14805.395989131732
-4146.149575646597        6000                     30.889898680003736       14885.677963127606
-4146.149575646597        6000                     31                       14888.63426212918
-4110.023084031307        5999.999999999999        2.39252355558522         477.6814658564042
-4110.023084031307        5999.999999999999        3.0999999999999996       618.9285667840288
-4108.967385826326        6000                     3.1                      576.9151392611504
-4108.967385826325        6000                     0.7247449231296129       102.68302071718765
-4110.023084031308        6000                     0                        0.0016421515394526526
-4108.967385826325        6000                     0                        0.00304078923239701
-4110.023084031307        5999.999999999999        5.492523555585461        1061.1967853193619
-4110.023084031307        5999.999999999999        6.199999999999999        1191.9729738460967
-4108.967385826325        6000                     6.2                      1112.0484890122416
-4108.967385826326        6000                     3.824744923128786        672.9723630757279
-4110.023084031307        5999.999999999999        8.59252355558546         1598.8283486645314
-4110.023084031307        5999.999999999999        9.299999999999999        1719.133221195219
-4108.967385826325        6000                     9.299999999999999        1605.4000492991381
-4108.967385826325        6000                     6.924744923128531        1201.4811455769527
-4110.023084031307        5999.999999999999        11.69252355558546        2090.5757523128627
-4110.023084031306        6000                     12.399999999999999       2200.409308852387
-4108.967385826325        6000                     12.399999999999999       2056.9698201387864
-4108.967385826325        6000                     10.024744923128532       1688.20813861371
-4110.023084031306        6000                     14.792523555586513       2536.4389962883706
-4110.023084031306        6000                     15.499999999999996       2635.8012368423792
-4108.967385826326        6000                     15.499999999999996       2466.757801555027
-4108.967385826325        6000                     13.12474492312853        2133.1533422065577
-4113.593318282114        6000.000000000001        0.6490348219802966       129.58125724090036
-4113.593318282115        6000.000000000001        3.1                      761.0067232250439
-4113.593318282114        6000                     0                        0.0019790479334016206
-4113.593318282115        6000.000000000001        3.749034821979443        880.9800465910805
-4113.593318282114        6000.000000000001        6.2                      1462.256304895918
-4113.593318282114        6000.000000000001        6.849034821979443        1572.6233031792742
-4113.593318282114        6000.000000000001        9.299999999999999        2103.748745046624
-4113.5933182821145       6000                     9.949034821979216        2204.5094182517805
-4113.5933182821145       6000                     12.4                     2685.4840437023363
-4113.5933182821145       6000                     13.049034821979216       2776.6383918345778
-4113.593318282114        6000                     15.499999999999996       3207.4622008927245
-4114.538754902416        6000                     2.4664519740701643       635.4172404830399
-4114.538754902416        6000.000000000001        3.1                      798.6291437557265
-4114.538754902416        6000                     0                        0.002016708644048729
-4114.538754902415        6000.000000000001        5.5664519740705956       1383.5782844588227
-4114.538754902415        6000.000000000001        6.2                      1533.827576408271
-4114.538754902415        6000.000000000001        8.666451974070593        2068.309015116763
-4114.538754902415        6000                     9.299999999999999        2205.5952979981166
-4114.538754902415        6000                     11.76645197407038        2689.6090347327417
-4114.538754902415        6000                     12.4                     2813.932308551516
-4114.538754902416        6000.000000000001        14.866451974069538       3247.478343336963
-4114.538754902416        6000                     15.499999999999996       3358.8386080997934
-4118.219521105842        6000                     0.5732117935828951       147.68414049359092
-4118.219521105844        6000                     3.0999999999999996       945.094274763649
-4118.219521105842        6000                     0                        0.01579653228288606
-4118.219521105844        6000                     3.6732117935820146       1081.0345075446248
-4118.219521105842        6000                     6.2                      1812.4565775913309
-4118.219521105842        6000                     6.773211793583094        1936.668339326868
-4118.219521105842        6000                     9.299999999999999        2602.086908813467
-4118.219521105842        6000                     9.873211793583094        2714.5701995083045
-4118.219521105843        6000                     12.4                     3313.985268424042
-4118.219521105843        6000                     12.973211793582013       3414.7400880839205
-4118.219521105843        6000                     15.499999999999996       3948.1516564507674
-4119.054526650441        6000                     2.5404854273950566       801.7516768589118
-4119.054526650441        6000                     3.1                      978.3195759319685
-4119.054526650441        6000                     0                        0.018939376092673696
-4119.054526650441        6000                     5.640485427394192        1713.7065408974909
-4119.054526650441        6000                     6.199999999999999        1875.6629823068615
-4119.054526650441        6000                     8.74048542739419         2544.6886547415834
-4119.054526650441        6000                     9.299999999999999        2692.030219520934
-4119.054526650441        6000                     11.840485427394865       3294.694599413811
-4119.0545266504405       6000                     12.4                     3427.4212875605353
-4119.0545266504405       6000                     14.940485427395053       3963.7243749336403
-4119.054526650441        6000                     15.499999999999996       4081.8361864528497
-4122.845994311937        6000                     0.49727583191142627      156.9713160824931
-4122.845994311938        6000                     3.1                      1129.1776423804783
-4122.845994311937        6000                     0                        0.044306135958498964
-4122.845994311938        6000                     3.59727583191052         1273.1185298537569
-4122.845994311937        6000                     6.2                      2162.6490367616066
-4122.845994311937        6000                     6.697275831910693        2293.60076311152
-4122.845994311937        6000                     9.299999999999999        3100.414184649383
-4122.845994311937        6000                     9.797275831911426        3218.3767498739453
-4122.845994311938        6000                     12.4                     3942.473085859274
-4122.845994311938        6000                     12.89727583191052        4047.446489962448
-4122.845994311937        6000                     15.5                     4688.825740385549
-4123.570399270131        6000                     2.6146239100932283       863.4524703494399
-4123.570399270132        6000                     3.0999999999999996       1023.7287471850361
-4123.570399270132        6000                     0                        0.04916914779479225
-4123.570399270131        6000                     5.714623910093393        1851.4571129818319
-4123.570399270131        6000                     6.199999999999999        2005.111139360825
-4123.570399270132        6000                     8.814623910092504        2797.1231153382087
-4123.570399270132        6000                     9.299999999999999        2944.1471785248596
-4123.570399270132        6000                     11.914623910093393       3700.4427644582
-4123.570399270132        6000                     12.399999999999999       3840.836864410002
-4123.570399270132        6000                     15.014623910092505       4561.416060276295
-4123.570399270132        6000                     15.5                     4695.180196989535
-4127.4731997730205       6000                     0.4207100383862728       120.74057957991955
-4127.47319977302         6000                     3.1                      1367.4779960332814
-4127.4731997730205       6000                     0                        0.039873571287972844
-4127.47319977302         6000                     3.5207100383872065       1490.0621916834712
-4127.47319977302         6000                     6.2                      2639.025883440146
-4127.47319977302         6000                     6.62071003838814         2763.48688359195
-4127.473199773018        6000                     9.3                      3814.643663379823
-4127.473199773018        6000                     9.720710038389074        3940.9814679902074
-4127.473199773018        6000                     12.4                     4894.331335758409
-4127.473199773018        6000                     12.820710038389073       5022.545944821326
-4127.473199773019        6000                     15.5                     5878.088900614768
-4128.086035800774        6000.000000000001        2.6894511058899493       1251.504041455527
-4128.086035800774        6000.000000000001        3.1                      1442.536843262087
-4128.086035800773        6000.000000000001        0                        0.03840262045443385
-4128.086035800774        6000                     5.789451105889035        2595.857952845188
-4128.086035800775        6000                     6.2                      2771.9094296425833
-4128.086035800775        6000.000000000001        8.88945110588798         3827.052696839551
-4128.086035800775        6000                     9.299999999999999        3988.117760124327
-4128.086035800775        6000                     11.989451105887841       4945.083184883959
-4128.086035800775        6000.000000000001        12.4                     5091.161834647907
-4128.086035800774        6000                     15.089451105888894       5949.949417015242
-4128.086035800774        6000                     15.5                     6081.041653264912
-4132.601771309902        6000                     33.76438614615793        9722.545447828534
-4132.601771309901        6000                     34.1                     9713.900573228053
-4132.1007592783835       6000                     34.1                     9525.596461039075
-4132.100759278383        6000                     31.343935821975535       9596.589729056672
-4132.601771309901        6000                     36.864386146158274       9480.572976612235
-4132.601771309902        6000                     37.2                     9452.246103765166
-4132.1007592783835       6000                     37.2                     9266.25624093924
-4132.1007592783835       6000                     34.443935821975415       9498.881601409856
-4132.601771309902        6000                     39.96438614615816        9056.798213202197
-4132.601771309902        6000                     40.300000000000004       9008.789342108616
-4132.1007592783835       6000                     40.300000000000004       8827.30314182054
-4132.1007592783835       6000                     37.54393582197553        9221.560594741562
-4132.601771309902        6000                     43.06438614615899        8451.22115760426
-4132.601771309902        6000                     43.400000000000006       8383.530288265178
-4132.100759278385        6000                     43.400000000000006       8208.737163690375
-4132.1007592783835       6000                     40.64393582197554        8764.626709055583
-4132.601771309901        6000                     46.164386146160155       7663.841809834997
-4132.601771309901        6000                     46.5                     7576.468942252407
-4132.100759278385        6000.000000000001        46.50000000000001        7410.558306566124
-4132.100759278385        6000                     43.74393582197446        8128.079944360921
-4136.728630757946        6000                     31.267017323270622       11338.93471720455
-4136.728630757948        6000                     34.10000000000001        11264.929077228815
-4136.728630757948        6000                     34.367017323269735       11242.391968948981
-4136.728630757949        6000                     37.20000000000001        10984.21075185521
-4136.728630757949        6000                     37.46701732326983        10946.014473287185
-4136.728630757949        6000                     40.300000000000004       10503.657679076261
-4136.72863075795         6000                     40.56701732326865        10449.802230221105
-4136.728630757951        6000.000000000001        43.40000000000001        9823.269858896125
-4136.728630757951        6000                     43.66701732326758        9753.755239755188
-4136.728630757951        6000                     46.50000000000001        8943.047291324026
-4137.117604325915        6000                     33.839452606261275       11417.922418878117
-4137.117604325915        6000                     34.10000000000001        11411.116282369561