% Model:              20230907_silksimulation_90kPa.mph
% Version:            COMSOL 6.1.0.357
% Date:               Oct 2 2023, 20:19
% Dimension:          3
% Nodes:              3577
% Expressions:        1
% Description:        サーフェス
% x                       y                        z                        sqrt((ux^2+vy^2+wz^2))
12.767366551844631        -5000                    0                        0.1868800861946161
13.622601423063621        -5000                    0.8815510934077675       0.9626884231312703
13.622601423063617        -5000                    0                        0.23582133479772477
12.767366551844635        -5000                    0.8814254786952218       1.0272886239894565
13.622601423063632        -5000                    2.583333333333334        2.5845763248561715
12.767366551844646        -5000                    2.5833333333333335       2.64929624313635
15.273641766277992        -5000                    1.7015551673652687       1.7592308744301568
15.273641766277981        -5000                    0                        0.33077167526027806
15.273641766277997        -5000                    2.5833333333333335       2.499608286560555
13.622601423063635        -5000                    3.464884426741101        3.3154035775901405
12.767366551844649        -5000                    3.4647588120285553       3.4453040134733017
13.62260142306365         -5000                    5.166666666666668        4.851202351879098
12.767366551844663        -5000                    5.166666666666667        4.981216150633862
15.273641766278008        -5000                    4.284888500699093        3.9296501318065746
15.273641766278011        -5000                    5.166666666666667        4.670904562023271
13.622601423063653        -5000                    6.048217760074435        5.4865262116597036
12.76736655184467         -5000                    6.048092145361634        5.673502952142221
13.622601423064141        -5000.000000000001       7.75                     6.822078798009547
12.767366551844681        -5000.000000000001       7.75                     7.009154120467363
15.273641766278022        -5000                    6.868221834031935        5.910028590752628
15.273641766278026        -5000                    7.75                     6.5524250814996226
13.622601423064147        -5000.000000000001       8.631551093408259        7.36027072195116
12.767366551844686        -5000                    8.631425478695967        7.5972675492721695
13.622601423063681        -5000                    10.333333333333336       8.494702968830326
12.767366551844697        -5000                    10.333333333333334       8.731783532705132
15.273641766278033        -5000                    9.45155516736527         7.597449238469666
15.273641766278038        -5000                    10.333333333333334       8.139342834249998
13.622601423063685        -5000                    11.214884426741103       8.935606152285818
12.767366551844702        -5000                    11.214758812028556       9.215721105062023
13.622601423063696        -5000                    12.916666666666668       9.868905680279084
12.767366551844713        -5000                    12.916666666666668       10.14908952327472
15.273641766278047        -5000                    12.034888500698603       8.989856121140905
15.27364176627805         -5000                    12.916666666666668       9.431037769468219
13.622601423063701        -5000                    13.798217760074435       10.212670051986835
12.767366551844718        -5000                    13.798092145361888       10.528953887888186
13.622601423063713        -5000                    15.5                     10.943416891304253
12.767366551844733        -5000                    15.5                     11.259802389899551
15.273641766278065        -5000                    14.618221834031935       10.087175939669724
15.273641766278068        -5000                    15.5                     10.426054061476684
11.115983985727727        -5000                    0.8811983611271986       0.9560322370314678
11.115983985727743        -5000                    2.5833333333333335       2.7625832292131727
10.261091312533074        -5000                    0.8810727978143091       1.0149055596737229
10.261091312533088        -5000                    2.5833333333333335       2.8215898177427903
10.261091312533068        -5000                    0                        0.07918975183081273
11.115983985727722        -5000                    0                        0.1158402479385466
11.115983985727746        -5000                    3.464531694460532        3.558385891627452
11.115983985727755        -5000                    5.166666666666667        5.202816461592526
10.261091312533097        -5000                    3.4644061311473884       3.6735561914526467
10.261091312533106        -5000                    5.166666666666667        5.318108067985045
11.115983985727516        -5000.000000000001       6.047865027793612        5.894924881038527
11.115983985727532        -5000.000000000001       7.750000000000002        7.327267099307388
10.261091312533111        -5000                    6.04773946448123         6.060139108329362
10.261091312533129        -5000                    7.750000000000002        7.4925869878039
11.115983985728029        -5000                    8.631198361127453        7.915228988480913
11.115983985728517        -5000                    10.333333333333332       9.135376909898003
10.261091312533132        -5000                    8.631072797814056        8.124627779051615
10.261091312533145        -5000                    10.333333333333334       9.344865708498943
11.115983985728274        -5000                    11.214531694461023       9.619189785695884
11.115983985728288        -5000                    12.916666666666668       10.627194203654895
10.261091312533152        -5000.000000000001       11.214406131148134       9.866944799837803
10.261091312533166        -5000.000000000001       12.91666666666667        10.875023576397156
11.115983985728295        -5000                    13.797865027794359       11.006960688331183
11.115983985727834        -5000                    15.500000000000004       11.801676916268821
10.261091312533171        -5000                    13.797739464481722       11.287196623468905
10.261091312533184        -5000                    15.500000000000004       12.082136424388754
8.609366529714356         -5000                    0.8808456352412101       0.9675449212690297
8.609366529713894         -5000                    2.5833333333333335       2.921828399456346
7.754816048343975         -5000                    0.8807201233258797       1.019527118047031
7.754816048343988         -5000                    2.583333333333333        2.9739546712033884
7.754816048343968         -5000                    0                        0.007700813304790633
8.60936652971435          -5000                    0                        0.03207036433197698
8.609366529713654         -5000                    3.4641789685737994       3.7735751149557446
8.609366529713672         -5000                    5.166666666666668        5.511103299148308
7.754816048343995         -5000                    3.4640534566589762       3.8737069975355327
7.754816048344013         -5000                    5.166666666666668        5.61136327692062
8.609366529714169         -5000                    6.04751230190764         6.252943025356862
8.609366529714663         -5000                    7.750000000000001        7.768953976146177
7.7548160483440185        -5000                    6.04738678999231         6.396238881510933
7.754816048344034         -5000                    7.75                     7.912361596654517
8.609366529714173         -5000                    8.630845635240956        8.400831811492033
8.609366529713713         -5000                    10.333333333333336       9.695344733417354
7.754816048344042         -5000                    8.630720123326133        8.582371152774463
7.754816048344057         -5000                    10.333333333333336       9.876979509630448
8.609366529713965         -5000                    11.214178968574053       10.217289219726295
8.609366529714453         -5000                    12.916666666666668       11.290330478982648
7.754816048344063         -5000                    11.214053456658977       10.432137851412268
7.754816048344075         -5000                    12.916666666666666       11.505258218120476
8.609366529714706         -5000                    13.797512301908133       11.70239725754807
8.609366529714723         -5000                    15.500000000000002       12.553326195890037
7.7548160483440824        -5000                    13.7973867899928         11.945585050508003
7.754816048344098         -5000                    15.5                     12.796782153207051
6.102749055021869         -5000.000000000001       0.8804929157474106       1.032757694090377
6.10274905502141          -5000                    2.583333333333333        3.060094508999092
5.248540759278017         -5000                    0.8803674552283053       1.0773239787018043
5.248540759278033         -5000                    2.583333333333333        3.1048101621165345
5.24854075927801          -5000                    0                        0.02758658825264426
6.102749055022109         -5000                    0                        0.021192419610124937
6.102749055021663         -5000                    3.4638262490805065       3.9596147178379653
6.102749055021679         -5000                    5.166666666666666        5.7759558760985525
5.248540759278041         -5000                    3.4637007885614013       4.044831429771636
5.2485407592780575        -5000                    5.166666666666667        5.86130641096844
6.102749055021684         -5000                    6.0471595824138396       6.560628999014159
6.102749055022178         -5000                    7.749999999999999        8.147638203277065
5.248540759278065         -5000                    6.047034121894988        6.682368620484951
5.248540759278082         -5000.000000000001       7.75                     8.269494751146977
6.102749055022186         -5000                    8.630492915747663        8.817474910787373
6.102749055022203         -5000                    10.333333333333332       10.175134870311842
5.2485407592780895        -5000                    8.630367455228559        8.971589599440783
5.2485407592781055        -5000                    10.333333333333332       10.329349587553681
6.102749055022209         -5000                    11.213826249080997       10.730149992722502
6.102749055022226         -5000                    12.916666666666668       11.858459614377134
5.2485407592781135        -5000                    11.21370078856189        10.912476775070719
5.248540759278131         -5000                    12.916666666666668       12.04086952742238
6.102749055022233         -5000                    13.79715958241433        12.298672851547892
6.102749055022251         -5000                    15.499999999999998       13.197482296091959
5.2485407592781375        -5000                    13.797034121895226       12.505030531462085
5.248540759278155         -5000                    15.5                     13.40406336124174
3.596131561652218         -5000                    0.8801402026471162       1.0763016473574876
3.5961315616522365        -5000                    2.583333333333334        3.17667188518105
2.7422654453358737        -5000                    0.8800147935223924       1.1133732396708151
2.7422654453358923        -5000                    2.5833333333333335       3.2138981314724706
2.7422654453358657        -5000                    0                        0.026672311715800465
3.5961315616524567        -5000                    0                        0.0268352295915333
3.5961315616524905        -5000                    3.463473535980704        4.116450501591235
3.5961315616525096        -5000                    5.166666666666668        5.9983344290344345
2.7422654453359           -5000                    3.463348126855726        4.187209568990154
2.742265445335919         -5000                    5.166666666666667        6.069232062877989
3.596131561652763         -5000                    6.046806869314291        6.81918469465759
3.5961315616532583        -5000                    7.750000000000002        8.465124696969342
2.7422654453359274        -5000                    6.046681460188806        6.920145470553024
2.7422654453359465        -5000                    7.750000000000001        8.566206666341115
3.596131561653019         -5000                    8.630140202647864        9.16703831086472
3.5961315616525615        -5000                    10.333333333333336       10.577023172498858
2.742265445335954         -5000                    8.630014793522884        9.294715794965839
2.7422654453359727        -5000                    10.333333333333334       10.704804476281033
3.5961315616525686        -5000                    11.213473535980704       11.159999835189318
3.5961315616525873        -5000                    12.916666666666668       12.334033927591495
2.7422654453359803        -5000                    11.213348126855728       11.310910963644268
2.742265445336            -5000                    12.916666666666666       12.485031502254788
3.5961315616525944        -5000                    13.796806869314036       12.798075115995546
3.59613156165309          -5000                    15.500000000000004       13.7361876290887
2.7422654453360074        -5000                    13.79668146018906        12.968739233154459
2.742265445336027         -5000                    15.500000000000002       13.90692505237315
1.0895140496063878        -5000                    0.8797874959406431       1.1026015777952867
1.0895140496059321        -5000                    2.583333333333333        3.271990433420884
0.23599010651822475       -5000                    0.8796621382076986       1.132532489240105
0.23599010651824548       -5000                    2.5833333333333335       3.302148137337536
0.23599010651821617       -5000                    0                        0.010443784035897909
1.0895140496061337        -5000                    0                        0.016181332045645893
1.0895140496059397        -5000                    3.4631208292734854       4.245050475918683
1.0895140496059605        -5000                    5.166666666666666        6.180099581489114
0.23599010651825414       -5000                    3.4629954715407942       4.302914596164813
0.23599010651827498       -5000                    5.166666666666667        6.239656869285585
1.0895140496057225        -5000                    6.046454162606565        7.030793208131296
1.0895140496066964        -5000.000000000001       7.750000000000001        8.724363325159125
0.2359901065182836        -5000                    6.046328804874127        7.115752573948315
0.2359901065183046        -5000                    7.75                     8.8124901560345
1.0895140496069502        -5000.000000000001       8.629787495941134        9.452684288352472
1.0895140496060178        -5000                    10.333333333333332       10.904804956334699
0.2359901065183132        -5000                    8.629662138208444        9.563936555072402
0.2359901065183338        -5000                    10.333333333333334       11.020709626108275
1.0895140496060258        -5000                    11.213120829273485       11.510754893444265
1.0895140496069997        -5000.000000000001       12.916666666666671       12.72146705588344
0.2359901065183424        -5000                    11.212995471540793       11.647535531187737
0.23599010651836344       -5000                    12.916666666666668       12.864398588604377
1.0895140496070077        -5000.000000000001       13.796454162607805       13.205049850704675
1.0895140496070284        -5000.000000000001       15.5                     14.173883502257212
0.23599010651837204       -5000                    13.796328804875111       13.366641846672557
0.23599010651839286       -5000                    15.5                     14.342870703073556
31.960598198335514        -5000                    1.706989764189353        1.0130046374502832
32.81034169959618         -5000                    2.5833333333333326       1.2807641385132775
32.81034169959621         -5000                    1.7073465056421253       0.9838346911566223
31.960598198335088        -5000                    0                        0.435109363950806
32.81034169959626         -5000                    0                        0.40581864411545676
30.30534729212457         -5000                    0                        0.4922103206230016
30.305347292124505        -5000                    1.7062694530295328       0.5024195685972721
30.305347292124473        -5000                    2.583333333333332        0.5078349442796595
31.960598198335482        -5000                    2.583333333333332        1.0060633508722057
31.96059819833543         -5000                    4.290323097522685        1.7769255464337081
32.81034169959611         -5000                    5.166666666666665        2.4475856969977348
32.81034169959613         -5000                    4.290679838975458        2.0517874355091887
30.305347292124416        -5000                    4.289602786363357        0.5684135084487166
30.305347292124384        -5000                    5.166666666666665        0.5999500573873524
31.960598198335397        -5000                    5.166666666666664        1.7645340892177515
31.96059819833534         -5000                    6.873656430856018        2.541430285364374
32.810341699596016        -5000                    7.749999999999998        3.6234443981399282
32.81034169959605         -5000                    6.87401317230879         3.2246442556162838
30.305347292124313        -5000                    6.872936119696197        0.7416280762826213
30.30534729212428         -5000                    7.7499999999999964       0.8150833762572915
31.96059819833531         -5000                    7.7499999999999964       2.5677879235289973
31.96059819833526         -5000                    9.45698976418935         3.342657002300295
32.81034169959594         -5000                    10.33333333333333        4.796165872498846
32.810341699595966        -5000                    9.45734650564187         4.398475415738554
30.305347292124225        -5000                    9.456269453030023        1.0888382995757613
30.30534729212419         -5000                    10.33333333333333        1.2300064015793986
31.960598198335227        -5000                    10.333333333333329       3.469415096158468
31.960598198335656        -5000                    12.040323097523174       4.242360312710043
32.81034169959587         -5000                    12.916666666666664       5.965920278252296
32.810341699595895        -5000.000000000001       12.040679838975947       5.569272625811788
30.305347292124132        -5000                    12.039602786363355       1.6215443701377659
30.305347292124097        -5000                    12.916666666666664       1.8230141597193479
31.960598198335624        -5000                    12.916666666666663       4.4586161663506445
31.96059819833509         -5000                    14.623656430856016       5.2311997620295765
32.81034169959578         -5000                    15.499999999999996       7.129040787889984
32.81034169959581         -5000                    14.624013172309041       6.738665335119651
30.305347292124033        -5000                    14.62293611969669        2.3155547347972716
30.305347292124004        -5000                    15.499999999999996       2.5589201648735527
31.960598198335056        -5000                    15.499999999999993       5.5136444441597465
34.4666374956252          -5000                    1.708067282232739        1.8628890318497862
35.31533620074914         -5000                    2.583333333333332        2.609660642859656
35.31533620074916         -5000                    1.708423590360581        1.8345423638580451
34.46663749562477         -5000                    0                        0.3498319278441912
35.3153362007492          -5000                    0                        0.3211696314520459
34.46663749562517         -5000                    2.583333333333332        2.159574160698499
34.46663749562466         -5000                    4.291400615565578        3.7145375339882087
35.31533620074907         -5000                    5.166666666666664        4.961424988425299
35.3153362007491          -5000                    4.291756923693673        4.164948386327864
34.46663749562464         -5000                    5.166666666666664        4.11001012605768
34.46663749562458         -5000                    6.874733948898912        5.520712154068996
35.31533620074901         -5000                    7.749999999999998        7.095006232155589
35.31533620074903         -5000                    6.875090257026754        6.3724212932509845
34.46663749562431         -5000                    7.749999999999998        5.919184157175382
34.46663749562427         -5000                    9.45806728223199         7.183717108374583
35.315336200748945        -5000                    10.333333333333329       9.007528237732915
35.315336200748966        -5000                    9.458423590360084        8.35980296884699
34.46663749562449         -5000                    10.333333333333329       7.581080338786343
34.46663749562444         -5000                    12.041400615565578       8.700278933089006
35.315336200748874        -5000                    12.916666666666664       10.700260566532286
35.315336200748895        -5000                    12.04175692369342        10.126960300330396
34.46663749562467         -5000                    12.916666666666664       9.096600217218066
34.46663749562511         -5000                    14.624733948899653       10.072037682180277
35.315336200748824        -5000                    15.499999999999996       12.17138703795769
35.315336200748845        -5000                    14.625090257027498       11.67590151077136
34.46663749562508         -5000                    15.499999999999995       10.463301076417942
36.97267691779501         -5000                    1.7091448324084375       2.7840684345633324
37.82033079558754         -5000.000000000001       2.5833333333333326       4.04370343498652
37.82033079558755         -5000                    1.709500707185351        2.7565573479231293
36.97267691779504         -5000                    0                        0.2662986033959151
37.82033079558758         -5000                    0                        0.2382632716712723
36.97267691779524         -5000                    2.583333333333333        3.5585477357740958
36.972676917795674        -5000                    4.292478165742516        5.925663985833538
37.82033079558749         -5000                    5.166666666666665        7.621399174248234
37.8203307955875          -5000.000000000001       4.292834040518924        6.411312561336948
36.97267691779541         -5000                    5.166666666666666        6.721484003156153
36.9726769177949          -5000                    6.875811499075102        8.790230382221687
37.82033079558744         -5000                    7.7499999999999964       10.748176921268259
37.82033079558745         -5000                    6.876167373852015        9.690576303618275
36.97267691779488         -5000                    7.749999999999997        9.512219649806331
36.97267691779485         -5000                    9.459144832408436        11.282132256322368
37.820330795587395        -5000                    10.33333333333333        13.423339499265971
37.82033079558741         -5000                    9.459500707185349        12.518458055507669
36.97267691779483         -5000                    10.33333333333333        11.929323565330204
36.97267691779479         -5000                    12.042478165741768       13.401000658990764
37.82033079558734         -5000                    12.916666666666664       15.647794765777352
37.82033079558735         -5000                    12.042834040518933       14.895323022637946
36.97267691779501         -5000                    12.916666666666664       13.973828318433828
36.972676917794985        -5000                    14.625811499075352       15.148269578967579
37.820330795587296        -5000                    15.499999999999993       17.420412120749347
37.82033079558731         -5000                    14.626167373852265       16.82248056616148
36.97267691779497         -5000                    15.499999999999995       15.644373748666904
39.47871646485194         -4999.999999999999       1.7102224147193623       3.764303171089696
40.32532548411557         -5000                    2.5833333333333326       5.564240753786358
40.325325484115574        -5000                    1.7105778561193472       3.7376373460382606
39.47871646485196         -4999.999999999999       0                        0.18450937970460113
40.325325484115595        -5000                    0                        0.157099553810985
39.478716464851686        -5000                    2.583333333333332        5.050386190695155
39.478716464851665        -5000                    4.293555748052443        8.268025127947414
40.32532548411554         -5000                    5.166666666666665        10.424357408320455
40.325325484115545        -5000                    4.29391118945268         8.78254842399374
39.4787164648519          -4999.999999999999       5.166666666666664        9.477112317630068
39.47871646485188         -4999.999999999999       6.876889081386027        12.23192746235386
40.32532548411551         -5000                    7.749999999999998        14.58545691674798
40.32532548411552         -5000                    6.877244522786013        13.17974509574005
39.478716464851864        -4999.999999999999       7.749999999999998        13.288654596557596
39.478716464851836        -4999.999999999999       9.46022241471936         15.580573093829434
40.32532548411547         -5000                    10.33333333333333        18.047430641270168
40.32532548411548         -5000                    9.460577856119345        16.877851751315077
39.47871646485206         -5000                    10.333333333333329       16.48470718650995
39.47871646485204         -5000                    12.043555748052945       18.314024197820217
40.32532548411544         -5000                    12.916666666666664       20.8107257746031
40.32532548411545         -5000                    12.043911189452679       19.877127845819313
39.47871646485203         -5000                    12.916666666666664       19.065874466652183
39.478716464852006        -5000                    14.626889081386278       20.433064854342135
40.3253254841154          -5000                    15.499999999999996       22.87475069131276
40.32532548411541         -5000                    14.627244522786011       22.178200310168158
39.478716464851985        -5000                    15.499999999999995       21.031385493592587
41.98475613680162         -5000                    1.7113000291669533       4.803019690360681
42.83032026633742         -5000                    2.583333333333333        7.170258131581253
42.830320266337424        -5000                    1.7116550371640076       4.777208623449552
41.98475613680115         -5000.000000000001       0                        0.10446424586823999
42.83032026633744         -5000                    0                        0.07767846690838014
41.98475613680161         -5000                    2.583333333333333        6.628111650991939
41.98475613680161         -5000                    4.294633362500286        10.738037155497206
42.83032026633741         -5000                    5.166666666666666        13.374305979718761
42.83032026633742         -5000                    4.294988370497592        11.281036237265484
41.98475613680159         -5000                    5.166666666666666        12.378487603293639
41.9847561368011          -5000.000000000001       6.877966695833124        15.848987499639126
42.83032026633739         -5000                    7.749999999999998        18.613179906876113
42.83032026633739         -5000                    6.87832170383043         16.845525828847403
41.984756136801096        -5000.000000000001       7.749999999999998        17.253536145833902
41.98475613680108         -5000.000000000001       9.461300029166459        20.084611604098416
42.830320266337374        -5000                    10.333333333333332       22.88688187156313
42.83032026633738         -5000                    9.461655037163764        21.444842669769585
41.98475613680107         -5000.000000000001       10.333333333333332       21.253222710553032
41.98475613680106         -5000.000000000001       12.04463336249979        23.444951687135756
42.83032026633735         -5000                    12.916666666666664       26.19552970506726
42.83032026633737         -5000                    12.044988370497094       25.079065520793172
41.984756136801046        -5000.000000000001       12.916666666666664       24.37777709798226
41.98475613680103         -5000.000000000001       14.627966695833123       25.930283206100675
42.83032026633734         -5000                    15.499999999999996       28.538948648108196