% Model:              20230907_silksimulation_90kPa.mph
% Version:            COMSOL 6.1.0.357
% Date:               Oct 2 2023, 20:06
% Dimension:          3
% Nodes:              315
% Expressions:        2
% Description:        せん断速度, 
% Length unit:        µm
% x                       y                        z                        spf.sr (1/s)             spf.sr*spf.mu (Pa)
-4146.149575646598        6000                     6.0898986800078365       6702.808017323674        8.043369620788406
-4132.100759278381        6000                     15.5                     12260.932918834143       14.713119502600971
-4146.149575646599        6000                     15.5                     17058.909785225544       20.47069174227065
-4146.149575646597        6000                     0                        1.4901161193847656E-8    1.7881393432617183E-11
-4132.100759278387        6000.000000000001        9.64393582197414         5754.8164954870535       6.905779794584463
-4132.100759278386        6000                     0                        10982.148867002701       13.17857864040324
-4146.149575646598        6000                     21.58989868000204        18629.325752775196       22.355190903330232
-4132.100759278383        6000                     31                       13584.397220839537       16.301276665007446
-4146.149575646597        6000                     31                       21055.71116343094        25.266853396117124
-4132.100759278381        6000                     25.143935821977692       12074.281119220996       14.489137343065194
-4123.570399270132        6000                     5.71462391009245         14594.158161579138       17.512989793894967
-4108.967385826326        6000                     15.499999999999996       9965.656081414976        11.958787297697969
-4123.570399270131        6000                     15.499999999999998       9456.007427895149        11.347208913474176
-4123.570399270132        6000                     0                        17651.25033784351        21.181500405412212
-4108.967385826326        6000                     10.024744923127702       12772.134296373662       15.326561155648392
-4108.967385826325        6000                     0                        21118.774142593065       25.342528971111673
-4146.149575646598        6000                     37.08989868000603        19485.29612051891        23.382355344622688
-4132.100759278385        6000                     46.5                     12260.932614531224       14.713119137437468
-4146.149575646597        6000                     46.5                     17058.912292367633       20.47069475084116
-4132.100759278383        5999.999999999999        40.643935821975795       13831.725517817842       16.598070621381407
-4123.570399270129        6000                     31                       9190.964982768752        11.0291579793225
-4123.570399270131        6000                     21.214623910093504       9406.003301800327        11.28720396216039
-4100.992012992219        6000                     15.499999999999996       10201.106383870583       12.2413276606447
-4100.992012992221        6000                     0                        23012.81766315832        27.61538119578998
-4100.992012992221        6000                     5.345031102275508        18567.922163320698       22.281506595984837
-4085.849836972722        6000                     15.499999999999996       10218.998803863904       12.262798564636684
-4085.849836972722        6000                     10.392827214664544       14383.45442317766        17.26014530781319
-4085.849836972722        6000                     0                        23016.28606894422        27.619543282733062
-4078.4091620573927       6000                     4.990768447690028        18866.632263951586       22.6399587167419
-4062.7557057690938       6000.000000000001        15.499999999999996       9756.538733576926        11.707846480292307
-4078.4091620573927       6000                     15.499999999999996       10202.982269070897       12.243578722885076
-4078.4091620573936       6000                     0                        23017.969820091188       27.621563784109426
-4062.7557057690938       6000                     10.740183405319742       13631.132067366409       16.35735848083969
-4062.755705769093        6000                     0                        19306.85838639365        23.168230063672382
-4055.8188694238243       6000.000000000001        4.65792659888636         15167.331255476774       18.20079750657213
-4039.677036948222        6000                     15.5                     14862.705207176961       17.835246248612354
-4055.818869423823        6000                     15.499999999999996       9457.10252565252         11.348523030783026
-4055.8188694238243       6000                     0                        17661.99729596437        21.194396755157243
-4039.677036948223        6000                     11.07595286795393        17235.717450693533       20.68286094083224
-4039.6770369482206       5999.999999999999        0                        5041.3356645264585       6.049602797431748
-4146.149575646598        6000                     52.58989868001088        10356.103350416863       12.427324020500233
-4132.100759278389        6000                     61.99999999999999        10982.152004680136       13.17858240561616
-4146.149575646597        6000                     61.999999999999986       1.4901161193847656E-8    1.7881393432617183E-11
-4132.100759278386        6000                     56.14393582197242        17427.59246265867        20.913110955190405
-4123.570399270129        6000                     46.5                     9456.005859499357        11.347207031399227
-4123.570399270129        6000                     36.714623910094836       9301.468573781796        11.161762288538153
-4055.818869423823        6000                     20.157926598887727       9432.487208161514        11.318984649793816
-4039.677036948222        6000                     31                       17632.782386648418       21.1593388639781
-4055.8188694238224       6000                     31                       9186.464394065248        11.023757272878298
-4039.6770369482215       6000                     26.575952867954392       17747.748048935515       21.29729765872262
-4033.2300000000114       6000                     15.500000000000002       17065.658512598897       20.47879021511867
-4033.2300000000114       6000                     0                        1.4901161193847656E-8    1.7881393432617186E-11
-4033.2300000000114       6000                     4.331074432896797        4768.915818740784        5.722698982488939
-4123.570399270128        6000                     52.214623910095895       12416.682668844509       14.90001920261341
-4108.967385826329        6000                     62                       21118.778032917307       25.342533639500765
-4123.570399270127        6000                     62                       17651.25514643327        21.18150617571992
-4108.967385826329        6000                     56.52474492312383        18228.584070190383       21.874300884228454
-4108.967385826328        6000                     46.5                     9965.653952521188        11.958784743025426
-4055.8188694238224       6000                     35.657926598888785       9271.466067863686        11.125759281436423
-4039.6770369482206       6000                     46.499999999999986       14862.704734207224       17.835245681048665
-4055.8188694238215       6000.000000000001        46.5                     9457.101404740359        11.348521685688427
-4039.677036948221        6000.000000000001        42.07595286795531        14775.574983254792       17.730689979905748
-4033.2300000000114       5999.999999999999        30.999999999999996       21064.21460003933        25.277057520047194
-4033.2300000000114       6000                     19.83107443289726        18183.02356078768        21.81962827294521
-4100.992012992215        6000                     62                       23012.82121775976        27.61538546131171
-4100.9920129922175       6000.000000000001        46.5                     10201.104095011095       12.241324914013315
-4100.992012992217        6000                     51.84503110228147        14568.746277863946       17.482495533436733
-4085.849836972725        6000.000000000001        62.00000000000001        23016.289776793696       27.619547732152434
-4085.849836972724        6000                     56.89282721466312        18774.72359829358        22.5296683179523
-4085.849836972724        6000                     46.5                     10218.996190561504       12.262795428673805
-4078.4091620573927       6000.000000000001        51.490768447691735       14277.094561730662       17.132513474076795
-4062.7557057690956       6000                     62                       19306.861054236342       23.168233265083607
-4078.4091620573927       6000.000000000001        62                       23017.973566956287       27.62156828034754
-4078.4091620573927       6000                     46.5                     10202.97960408227        12.243575524898722
-4062.7557057690956       6000                     57.24018340531619        15342.485818478468       18.41098298217416
-4062.7557057690947       6000                     46.5                     9756.537097674081        11.707844517208898
-4055.8188694238206       6000                     51.15792659889015        11855.368955523261       14.226442746627912
-4039.677036948222        6000                     62                       5041.336385017411        6.049603662020893
-4055.81886942382         6000                     62                       17661.999642402425       21.194399570882908
-4039.677036948222        6000                     57.57595286795347        2640.487460769762        3.1685849529237142
-4033.230000000013        6000                     46.49999999999999        17065.65864503951        20.478790374047414
-4033.230000000012        6000                     35.33107443289591        19946.84973808103        23.936219685697232
-4033.2300000000114       6000                     62                       1.4901161193847656E-8    1.7881393432617186E-11
-4033.230000000013        6000                     50.83107443289439        12296.742640086142       14.756091168103369
4121.138094429105         6000                     6.196910151159779        16584.92612167997        19.901911346015964
4130.763099910517         6000                     15.499999999999996       10401.8950506859         12.482274060823077
4121.138094429105         6000                     15.499999999999996       9933.086938761317        11.919704326513578
4121.138094429104         6000                     0                        18270.766668347165       21.9249200020166
4130.763099910517         6000                     7.32542933878301         12539.38646347512        15.047263756170143
4130.763099910518         6000                     0                        14548.12457119993        17.45774948543992
4141.504049386933         6000                     10.404415414761493       16447.163837661876       19.73659660519425
4146.764842039905         6000                     15.5                     17376.898087889713       20.852277705467657
4141.504049386933         6000                     15.499999999999998       15073.236699949352       18.087884039939222
4141.504049386945         6000                     0                        4782.498529217666        5.7389982350611985
4146.764842039905         6000                     4.0043783042730094       4488.852556491414        5.386623067789697
4146.764842039905         6000                     0                        1.4901161193847656E-8    1.7881393432617186E-11
4141.504049386933         6000                     25.904415414761036       17757.31577880326        21.308778934563907
4146.7648420399055        6000                     31                       21324.40344451001        25.589284133412015
4141.504049386933         6000                     31.000000000000007       18302.740976263514       21.963289171516216
4146.764842039905         6000                     19.50437830428295        18396.640033198913       22.075968039838695
4100.770494185839         6000                     2.0486610482362266       21457.91486158241        25.749497833898893
4114.72728107836          6000.000000000001        15.499999999999996       9621.03034408587         11.545236412903044
4100.770494185841         6000                     15.499999999999996       10207.888955466768       12.24946674656012
4100.770494185839         6000.000000000001        0                        22939.55798839937        27.527469586079246
4114.72728107836          6000                     10.621563617921398       13054.026871148972       15.664832245378765
4114.72728107836          6000.000000000001        0                        20750.669958250048       24.900803949900055
4141.504049386933         6000.000000000001        41.40441541476057        15652.891757856582       18.783470109427896
4146.7648420399055        6000                     46.5                     17376.898509399278       20.85227821127913
4141.504049386932         6000                     46.5                     15073.236340227959       18.08788360827355
4146.7648420399055        6000.000000000001        35.00437830428402        20304.661668289133       24.365594001946956
4130.763099910517         6000                     22.825429338781397       11287.9173849734         13.54550086196808
4130.763099910517         6000                     31                       12161.10883094354        14.593330597132246
4098.645038581186         6000                     13.88271457350171        11583.71237897317        13.900454854767801
4098.645038581186         6000                     15.499999999999996       10298.174483567025       12.357809380280429
4098.645038581188         6000                     0                        23272.97289681717        27.9275674761806
4121.138094429105         6000                     52.696910151162186       11516.02349632033        13.819228195584392
4130.763099910515         6000                     62                       14548.128392241844       17.457754070690214
4121.138094429106         6000                     62                       18270.77131179988        21.92492557415985
4121.138094429105         6000                     46.5                     9933.084498030588        11.919701397636704
4130.763099910515         6000                     53.82542933877818        12306.832975935826       14.76819957112299
4130.763099910515         6000                     46.5                     10401.8938350241         12.482272602028921
4141.504049386945         6000                     56.904415414773645       3374.3410045744417       4.04920920548933
4146.764842039905         6000                     62                       1.4901161193847656E-8    1.7881393432617186E-11
4141.504049386945         6000                     62                       4782.499729968715        5.738999675962456
4146.7648420399055        6000                     50.50437830428069        12888.045783825552       15.465654940590662
4130.763099910516         6000                     38.325429338779784       11378.887138943443       13.65466456673213
4080.402025103556         6000                     13.475518696720805       11617.980313434171       13.941576376121002
4082.514330893619         6000                     15.499999999999996       10311.554148581865       12.373864978298233
4080.402025103556         6000                     15.499999999999996       10222.712925916514       12.267255511099815
4080.402025103556         6000                     0                        22987.030016485645       27.584436019782775
4082.5143308936176        5999.999999999999        1.6074920682497982       21952.741875630476       26.34329025075657
4082.5143308936176        5999.999999999999        0                        23308.37302748111        27.970047632977334
4090.5562084990956        6000                     15.499999999999996       10309.086473130395       12.370903767756474
4090.5562084990925        6000                     7.7273791978686415       16786.438020158253       20.143725624189905
4090.556208499099         6000                     0                        23290.73546304099        27.948882555649185
4060.030347739528         6000                     9.459259589111957        11521.884502321991       13.826261402786388
4066.342971177306         6000                     15.499999999999996       9636.352433803184        11.56362292056382
4060.030347739528         6000                     15.499999999999996       9917.816189199839        11.901379427039803
4060.030347739528         6000                     0                        18440.068204488314       22.128081845385978
4066.342971177306         6000                     4.802728410433672        17342.9460677312         20.811535281277443
4066.342971177307         6000                     0                        20848.090738702303       25.01770888644276
4039.651735472796         6000                     5.462426110860372        3600.991983924367        4.321190380709241
4050.1465200457314        6000                     15.499999999999996       10357.898408518771       12.429478090222526
4039.651735472788         6000                     15.499999999999998       14890.983153057092       17.869179783668507
4039.6517354727966        6000                     0                        5170.2571697721005       6.2043086037265205
4050.1465200457314        6000                     7.981617843269894        12396.135377468052       14.875362452961664
4050.1465200457333        6000                     0                        14669.559773884373       17.603471728661248
4100.770494185843         6000                     48.54866104824175        11609.745035779422       13.931694042935305
4114.727281078356         6000.000000000001        62.00000000000001        20750.67534803671        24.900810417644053
4100.770494185843         6000                     62                       22939.56328019802        27.52747593623762
4100.770494185844         6000                     46.5                     10207.884519424486       12.249461423309382
4114.727281078357         6000.000000000001        57.12156361791936        17215.385137504552       20.65846216500546
4114.727281078357         6000                     46.5                     9621.027491617506        11.545232989941006
4039.6517354727875        6000                     20.962426110852643       15493.184604171587       18.5918215250059
4050.146520045729         6000                     31                       12061.99765407039        14.474397184884468
4039.651735472791         6000                     31                       18051.57015446705        21.66188418536046
4050.1465200457296        6000                     23.481617843268268       11286.025803951346       13.543230964741614
4033.9400000000123        6000                     11.156770758280063       12507.88092833158        15.009457113997895
4033.940000000012         6000                     15.5                     17377.70557501664        20.853246690019965
4033.940000000012         6000                     0                        1.4901161193847656E-8    1.7881393432617186E-11
4098.645038581186         6000                     60.38271457349928        21911.079912387475       26.29329589486497
4098.645038581186         6000                     62.00000000000001        23272.97796816742        27.927573561800905
4098.645038581186         6000                     46.5                     10298.171549436458       12.357805859323747
4039.6517354727907        6000                     36.46242611085608        17486.212510196434       20.983455012235716
4050.146520045727         6000                     46.5                     10357.89754723982        12.429477056687784
4039.6517354727916        6000                     46.5                     14890.982176582063       17.869178611898477
4050.146520045728         6000                     38.98161784326718        11238.053078815203       13.485663694578243
4033.940000000012         5999.999999999999        26.656770758280274       20221.352671031098       24.265623205237315
4033.9400000000123        6000                     31                       21328.480577512142       25.59417669301457
4080.4020251035563        6000                     59.97551869672248        21512.463932153798       25.814956718584554
4082.5143308936176        5999.999999999999        62                       23308.37545413016        27.970050544956194
4080.402025103556         6000                     62                       22987.032202844464       27.584438643413357
4080.402025103556         5999.999999999999        46.5                     10222.70906860392        12.267250882324701
4082.514330893619         6000                     48.10749206825063        11591.203583861212       13.909444300633453
4082.514330893619         6000                     46.5                     10311.548926734336       12.373858712081203
4090.556208499087         6000                     62                       23290.73925897706        27.94888711077247
4090.5562084990906        6000                     54.22737919786613        16737.247441280488       20.08469692953658
4090.5562084990906        6000                     46.5                     10309.082459436006       12.370898951323204
4060.030347739529         6000                     55.959259589115575       16733.473939621123       20.08016872754534
4066.342971177305         6000                     62                       20848.0918713273         25.017710245592756
4060.0303477395296        6000                     62                       18440.06903148676        22.12808283778411
4060.030347739529         6000                     46.5                     9917.814225249158        11.901377070298988
4066.342971177305         6000                     51.30272841043269        13040.03480243015        15.648041762916176
4066.342971177306         6000                     46.5                     9636.349535412337        11.563619442494804
4039.651735472791         6000                     51.96242611085608        16423.40373824674        19.708084485896084
4050.146520045726         6000                     62                       14669.56038581385        17.60347246297662
4039.651735472795         6000                     62                       5170.257619804535        6.2043091437654425
4050.146520045727         6000                     54.48161784326609        12527.139115702352       15.03256693884282
4033.9400000000132        6000                     42.156770758279094       18484.83273812516        22.181799285750188
4033.940000000013         5999.999999999999        46.49999999999999        17377.704894678056       20.85324587361367
4033.9400000000114        6000                     57.656770758274696       4869.824709740208        5.843789651688249
4033.940000000013         6000                     61.99999999999999        1.4901161193847656E-8    1.788139343261719E-11
-4108.967385826327        6000                     31                       4819.327696069873        5.783193235283846
-4108.967385826327        6000                     25.524744923127006       4959.617824132325        5.951541388958789
-4108.967385826328        6000                     41.02474492312523        9909.077918495894        11.89089350219507
-4100.992012992218        6000.000000000001        31                       2503.4468990505916       3.0041362788607096
-4100.992012992218        6000                     20.845031102278305       7597.202301022236        9.116642761226682
-4085.849836972724        6000.000000000001        31                       2609.396224899973        3.131275469879968
-4085.849836972723        6000                     25.892827214664187       5140.003951080663        6.168004741296795
-4078.4091620573927       6000.000000000001        20.490768447690705       7773.559515890931        9.328271419069118
-4062.7557057690947       6000.000000000001        31                       7147.1685694767375       8.576602283372084
-4078.4091620573936       6000.000000000001        31.000000000000004       2495.263273916884        2.99431592870026
-4062.7557057690938       6000                     26.240183405318668       9567.004231124467        11.48040507734936
-4100.992012992218        6000                     36.345031102279364       5184.605438761944        6.221526526514333
-4085.849836972724        6000.000000000001        41.392827214663484       7765.498332187585        9.318597998625101
-4078.4091620573927       6000                     35.990768447691046       5001.909681059596        6.002291617271514
-4062.7557057690947       6000                     41.74018340531726        7426.482175873733        8.91177861104848
4121.138094429106         6000                     21.696910151160047       10696.33955216206        12.83560746259447
4121.138094429105         6000                     31                       8504.712054412292        10.20565446529475
4121.138094429106         6000                     37.19691015116193        7844.362058648387        9.413234470378065
4100.77049418584          6000.000000000001        17.5486610482389         9810.305432867943        11.77236651944153
4114.727281078357         6000                     31                       6091.609398332012        7.309931277998413
4100.770494185843         6000.000000000001        31                       2399.227531800797        2.8790730381609557
4114.727281078358         6000                     26.121563617920344       7234.52179693901         8.681426156326811
4100.770494185843         6000.000000000001        33.04866104824024        2876.5937281779425       3.4519124738135307
4114.727281078357         6000                     41.6215636179204         8580.407315544679        10.296488778653615
4098.645038581187         6000.000000000001        29.382714573500547       2757.674361327722        3.309209233593266
4098.645038581187         6000.000000000001        31                       1870.3407507284358       2.244408900874123
4098.645038581186         6000                     44.882714573499605       9487.198561523948        11.384638273828738
4080.4020251035554        6000                     28.975518696722137       2770.586374404836        3.324703649285803
4082.5143308936176        5999.999999999999        31                       1761.0711806319625       2.113285416758355
4080.402025103556         6000                     31                       2281.893965466319        2.7382727585595825
4082.514330893619         6000                     17.107492068250632       9492.955248430782        11.391546298116937
4090.5562084990906        6000                     31                       1855.6651899256801       2.226798227910816
4090.556208499094         6000                     23.227379197868654       6163.284825332104        7.395941790398525
4060.030347739528         6000                     24.95925958911299        7710.8191361291065       9.252982963354928
4066.342971177306         6000                     31                       5974.770721356095        7.169724865627313
4060.0303477395287        6000                     31                       8332.656402569868        9.999187683083843
4066.342971177306         6000                     20.302728410433346       8571.889057483382        10.286266868980055
4080.402025103556         6000                     44.47551869672115        9813.31810046926         11.775981720563108
4082.5143308936176        5999.999999999999        32.6074920682498         2655.6462378569677       3.1867754854283605
4090.556208499087         6000                     38.727379197863584       6077.602050127314        7.293122460152777
4060.0303477395287        6000                     40.45925958911454        10642.178468595905       12.770614162315084
4066.342971177306         6000                     35.80272841043302        7140.693537633708        8.568832245160449
22.50089571417227         6000                     1.6598760239827683       42751.039438128          51.308057653097976
40.35999999998603         6000                     15.5                     38008.91565260075        45.61299533323572
40.35999999998603         6000                     1.661554044840844        4074.4441314419046       4.889579116424886
22.50089571417227         6000                     0                        38680.710130566535       46.423416573927874
40.35999999998604         6000                     0                        1.4901161193847656E-8    1.7884781930064298E-11
20.35902250146645         6000                     0                        43319.76629426515        51.99106997420594
20.35902250146645         6000                     1.659695530227174        40700.37262780768        48.847346180516354
20.35902250146645         6000                     15.499999999999996       19063.20259109242        22.878999336268333
22.50089571417227         6000                     15.499999999999996       20757.58579838929        24.91211539606478
22.50089571417227         6000                     17.159876023982765       21899.62253659021        26.2827476534035
40.35999999998603         6000                     31.000000000000007       46919.86862680136        56.307624643922814