% Model:              20230907_silksimulation_90kPa.mph
% Version:            COMSOL 6.1.0.357
% Date:               Oct 2 2023, 20:06
% Dimension:          3
% Nodes:              284
% Expressions:        2
% Description:        せん断速度, 
% Length unit:        µm
% x                       y                        z                        spf.sr (1/s)             spf.sr*spf.mu (Pa)
-85.1602642107254         1959.9999999999995       6.396171724520061        15875.506289480694       19.05081260679963
-74.31307241607828        1960                     15.499999999999996       10139.822324458737       12.168236239441352
-85.16026421072104        1960                     15.499999999999996       10525.38041532404        12.630615388805843
-85.1602642107283         1959.9999999999998       0                        20488.91654698763        24.587041460219055
-74.31307241607726        1960.0000000000002       11.440483471434858       12791.918332769517       15.350825042328994
-74.31307241607422        1959.9999999999998       0                        25317.47819094029        30.382128458584404
-103.99477518220279       1960                     9.449640229469376        12795.844838886092       15.35504898829955
-94.75747336775143        1960                     15.499999999999998       15777.195661344944       18.932687575418292
-103.99477518220289       1960                     15.499999999999998       20288.86988195572        24.346680261563378
-103.99477518220303       1960                     0                        1.4901161193847656E-8    1.7881394436775213E-11
-94.7574733677512         1960                     7.386988199799838        4710.491106189147        5.65261127345539
-94.75747336774785        1960                     0                        9267.701434238235        11.121304758341127
-103.99477518220289       1960                     24.949640229469168       22991.863674372016       27.59028447051697
-94.75747336775466        1960                     31                       18369.759435392123       22.04377621626558
-103.99477518220274       1960                     30.999999999999996       24658.765442818476       29.590567577958616
-94.75747336775464        1960                     22.886988199793965       16049.097484118141       19.25897186568591
-47.49019002180617        1960                     0                        33208.082558135175       39.909023711864194
-47.49019002180587        1960                     12.7933344516584         14419.48451279619        17.33249969590004
-55.634544183272936       1960                     4.683702030215143        24236.668294494153       29.099193513203904
-55.63454418327328        1960                     0                        31087.39368994004        37.331077140805405
-55.63454418325858        1960                     15.499999999999996       11437.927865471178       13.737911219364044
-47.49019002180477        1960                     15.5                     12484.4634803677         15.01006082633784
-43.49861006506017        1960                     4.282348727027639        28942.722377035065       34.81106452623663
-43.498610065060156       1960                     0                        32639.515603864627       39.26151335926072
-43.49861006506018        1960                     15.499999999999998       12808.728921155813       15.424471512650836
-64.35231054614368        1960                     15.499999999999996       10948.98746069935        13.141352951782249
-64.35231054614079        1960                     12.27503541067698        12954.087631341386       15.547475558063994
-60.80166556389531        1960.0000000000002       15.499999999999996       11006.01468847127        13.210353776892811
-60.80166556389528        1960.0000000000002       13.962789040082948       12677.903032646323       15.216946337832542
-64.35231054612916        1959.9999999999998       0                        27800.288526766642       33.36635314472824
-60.80166556389499        1960                     0                        29587.955889766094       35.51292431730717
-103.99477518220277       1960                     40.449640229469374       21955.77110735091        26.346962717190884
-94.75747336775805        1960                     46.5                     15777.19291812192        18.932684283272188
-103.9947751822028        1960                     46.49999999999999        20288.867743370152       24.346677695098375
-94.75747336775802        1960                     38.38698819978812        18178.65674755202        21.81445151826975
-47.490190021805056       1960                     28.29333445165902        11556.707431971929       13.896117191408905
-55.63454418325892        1960                     20.18370203022805        11353.959880438237       13.63702177521937
-55.634544183244586       1960                     31                       7097.990443394806        8.528842097842942
-47.49019002180401        1960                     31                       10738.602893794432       12.914052482707172
-43.498610065060184       1960                     19.78234872702735        13345.17750708815        16.068582941290174
-43.49861006506017        1960                     31                       12221.545676140253       14.719188625581953
-85.16026421071402        1960                     31                       11263.106246506592       13.515906783861743
-85.16026421071814        1960                     21.896171724529516       11015.71014046644        13.21902973012368
-85.16026421070393        1959.9999999999998       52.89617172454803        14940.480795838856       17.92886844477008
-74.31307241609022        1960.0000000000002       62                       25317.478294102002       30.382128574206778
-85.1602642106996         1960                     62                       20488.917584554547       24.587042703983535
-85.16026421070677        1960                     46.5                     10525.377256262596       12.630611597073825
-74.31307241608923        1960                     57.94048347139939        22390.607352477215       26.86979682014247
-74.31307241608621        1960                     46.5                     10139.818583824279       12.168231748070859
-103.99477518220299       1960                     55.94964022946905        7493.023447550576        8.991629358631258
-94.75747336776118        1960                     62                       9267.701356095373        11.12130466493857
-103.99477518220303       1960                     61.99999999999999        1.4901161193847656E-8    1.7881394436790413E-11
-94.75747336776143        1960                     53.88698819978228        20253.604866155405       24.30441908215968
-47.490190021804025       1960                     43.7933344516598         12020.062283500447       14.452984933835046
-55.634544183244586       1960                     35.683702030241264       7536.825771929407        9.055824108737813
-55.63454418323023        1960                     46.5                     11437.9243081524         13.737906755931252
-47.49019002180286        1960                     46.5                     12484.46094479087        15.010057317127387
-43.49861006506017        1960                     35.28234872702764        12025.615797497827       14.484384829332283
-43.49861006506018        1960                     46.5                     12808.728290655778       15.42447038877413
-85.16026421071113        1960                     37.39617172453868        10955.470347035971       13.146729039224919
-60.801665563895625       1960                     29.462789040076704       6066.4782115656835       7.281736151931205
-60.801665563895654       1960                     31                       5883.344985772551        7.061944048395434
-47.490190021802874       1960                     59.29333445166068        30919.363477350933       37.16160097482396
-55.63454418323023        1960                     51.18370203025448        17933.78239364698        21.543697514024508
-55.634544183215894       1959.9999999999998       62                       31087.40049188739        37.331084894624226
-47.49019002180177        1960                     62                       33208.091314152436       39.90903329410761
-43.49861006506015        1960                     50.782348727027745       16165.00698626362        19.465616847351583
-43.498610065060156       1960                     62                       32639.527636812247       39.261527228162684
-64.35231054618717        1959.9999999999998       62                       27800.292882382117       33.366358291890215
-64.35231054618436        1960                     58.77503541063831        25481.452784191475       30.58368155924943
-60.80166556389631        1960                     62                       29587.961272133383       35.512930679818226
-60.80166556389628        1960                     60.46278904006421        27574.77471902992        33.09669783093686
-64.35231054617273        1960                     46.5                     10948.984718697398       13.141349634273915
-60.801665563895966       1959.9999999999998       46.5                     11006.010140856974       13.210348286959924
-60.80166556389594        1959.9999999999998       44.962789040070454       11164.176848624764       13.40019854780617
85.07855871300302         1960                     14.9485224590624         10951.33201324287        13.141598415894759
85.73206436895114         1960                     15.499999999999996       10260.284362595241       12.312341235116147
85.078558713003           1960                     15.499999999999996       10611.078604943294       12.733294325934116
85.07855871300293         1960                     0                        20258.856374297855       24.310627649170016
85.73206436895241         1960                     0.7399734151883565       19625.85696154548        23.55102835386567
85.73206436895242         1960                     0                        20008.51543253522        24.01021851905336
98.76555831556178         1959.9999999999998       10.997778883041757       20078.583776498876       24.09430053179872
104.10172010090912        1960                     15.5                     20282.757368608727       24.339308842330517
98.76555831556178         1960                     15.499999999999998       17724.287259410816       21.269144711293034
98.76555831556183         1959.9999999999998       0                        5235.550661754685        6.282660794105639
104.10172010090918        1960                     6.044035188906322        7520.616911380338        9.024740293656405
104.10172010090928        1960                     0                        1.4901161193847656E-8    1.7881393432617196E-11
98.76555831556178         1960                     26.497778883041867       20906.733919327657       25.088080703193256
104.10172010090912        1960                     31                       24644.191772480743       29.57303012697695
98.76555831556179         1960                     31                       21117.51025663344        25.341012307960195
104.10172010090912        1960                     21.54403518890632        21944.720803960052       26.333664964752106
43.9963280293618          1959.9999999999998       11.27172086854748        17180.486422729515       20.616628844057644
49.00462215739394         1960                     15.5                     12785.417693589072       15.3425168601605
43.996328029361806        1959.9999999999998       15.5                     13677.162543365446       16.41262426441533
43.99632802936183         1959.9999999999998       0                        33962.422314440395       40.75501316745521
49.00462215739396         1960                     5.666840662003939        27068.996026394765       32.48286340916466
49.00462215739428         1960                     0                        33249.76636385186        39.89978840462365
57.69393598279281         1960                     7.3354905849057275       19889.743257521535       23.86769292335492
67.36635957184511         1960                     15.499999999999996       10369.822968535196       12.443787616166386
57.69393598279284         1960                     15.499999999999995       11386.76717603812        13.664120792746939
57.69393598279278         1960                     0                        30545.819822742647       36.65498637186392
67.36635957184535         1960                     10.947552617997609       16627.274894977003       19.952730895609257
67.36635957184535         1960                     0                        28946.366625879185       34.7356409793473
83.16475581613375         1960                     13.333336233877164       12785.263373521044       15.34231604962088
83.16475581613375         1960                     15.499999999999996       10550.943540064385       12.661132248162968
71.38801456213822         1960                     3.3944267247935773       23644.607030175273       28.37352844407446
71.38801456213822         1960                     15.499999999999996       10328.07148364178        12.393685780919068
71.3880145621382          1960                     0                        26557.471039430355       31.868965255792105
83.16475581613015         1960                     0                        21087.22368672248        25.304668425470876
98.76555831556179         1960                     41.99777888304199        17977.23425313653        21.57268110376389
104.10172010090912        1960                     46.5                     20282.754580256387       24.33930549630771
98.7655583155618          1960                     46.5                     17724.28514235695        21.269142170828395
104.10172010090912        1960                     37.04403518890632        22982.226899926456       27.578672279911807
43.996328029361806        1959.9999999999998       26.77172086854748        12773.850985209845       15.328646368872871
49.00462215739394         1960                     31                       10477.2950488137         12.572765930616082
43.996328029361806        1959.9999999999998       31                       13015.211659575827       15.61827989342122
49.00462215739394         1960                     21.166840662003942       11545.35246857475        13.854439407952814
85.73206436895113         1960                     16.239973415186817       10486.231942559156       12.583478331072929
85.7320643689499          1960                     31                       11192.823559936203       13.431388271925428
85.07855871300332         1960                     61.448522459065785       19735.188753945436       23.682226504745884
85.73206436894738         1960                     62                       20008.51218528729        24.010214622355857
85.07855871300332         1960                     61.99999999999999        20258.853135834543       24.310623763014053
85.0785587130032          1960                     46.5                     10611.075447862368       12.733290537437007
85.7320643689486          1960                     47.23997341518374        10454.262219372878       12.545114663249233
85.73206436894863         1960                     46.5                     10260.28222958045        12.312338675498399
98.76555831556188         1960                     57.4977788830421         2838.4319313366213       3.40611831760395
104.10172010090928        1960                     62                       1.4901161193847656E-8    1.7881393432617196E-11
98.76555831556188         1960                     62                       5235.549757239391        6.2826597086872855
104.10172010090922        1960                     52.54403518890653        12762.139106093633       15.314566927312404
43.996328029361806        1959.9999999999998       42.27172086854748        14250.718200747646       17.10089303374457
49.00462215739363         1960                     46.5                     12785.41135218815        15.34250926353749
43.996328029361806        1959.9999999999998       46.49999999999999        13677.154137615325       16.412614195425927
49.00462215739363         1960                     36.66684066200356        12069.05431719667        14.482877104346448
85.73206436894988         1959.9999999999998       31.739973415185283       10989.440350325902       13.187328420392998
57.693935982792866        1960                     31.000000000000004       7023.243842912468        8.427892656579516
57.693935982792866        1960                     22.835490584906424       9270.676464941453        11.124811876969673
43.996328029361834        1959.9999999999998       57.77172086854747        30126.902175056723       36.152371916003055
49.004622157393484        1960                     62                       33249.77385153534        39.89979746642205
43.99632802936183         1959.9999999999998       62                       33962.43301087416        40.75502612035005
49.00462215739346         1960                     52.16684066200336        18614.48911063437        22.337402294938524
57.69393598279298         1960                     53.835490584907774       21660.133635883547       25.992162098751056
67.36635957184427         1960                     62                       28946.36555454735        34.73563969437998
57.69393598279301         1960                     62                       30545.82309860731        36.654990305065695
57.69393598279294         1960                     46.5                     11386.761858358213       13.66411441165802
67.36635957184465         1960                     57.447552617996756       22341.134950144075       26.809361994324256
67.36635957184465         1960                     46.5                     10369.819698525836       12.443783692185358
83.16475581614463         1960                     59.83333623388918        18654.047008673806       22.384856410496067
83.16475581614463         1960                     62                       21087.22051403715        25.30466461824948
71.3880145621383          1960                     49.8944267247944         12954.9374720087         15.545924967530318
71.3880145621383          1960                     62                       26557.4686045723         31.868962333968405
71.38801456213827         1960                     46.5                     10328.068667782101       12.393682401887755
83.164755816141           1959.9999999999998       46.5                     10550.939913942755       12.66112789681706
57.693935982792894        1959.9999999999998       38.33549058490679        9522.040818439304        11.426449106862751
-74.31307241608232        1959.9999999999998       30.999999999999996       6213.546596612874        7.456504214930893
-74.3130724160813         1959.9999999999998       26.940483471422876       6032.981069857527        7.2398163912403515
-74.31307241608519        1960                     42.44048347141137        10595.161247442082       12.714665168434538
-64.35231054615821        1960                     31                       6828.125960426716        8.195304498702484
-64.35231054615531        1959.9999999999998       27.775035410664085       6682.293481816068        8.020298137453583
-64.35231054616983        1959.9999999999998       43.27503541065119        11408.559143939165       13.692912545764392
85.07855871300312         1959.9999999999998       30.448522459063515       11470.618109177729       13.764741731015551
85.07855871300312         1959.9999999999998       30.999999999999996       11215.572403043301       13.458686883654128
85.0785587130032          1960                     45.948522459064655       10539.441456204971       12.647329747448108
67.36635957184491         1960                     31                       4049.5525241490154       4.8594630395767116
67.36635957184511         1960                     26.447552617997303       5582.318909606942        6.698782751487752
83.16475581613739         1960                     28.83333623388117        11347.001762626676       13.616402115244266
83.16475581613739         1960                     31                       10336.627037956398       12.403952445555412
71.38801456213825         1960                     18.894426724793835       10722.430027324863       12.866916033373109
71.38801456213825         1960                     31                       5057.650234941726        6.069180282041778
67.36635957184491         1960                     41.94755261799707        9184.832270586969        11.02179873572682
83.164755816141           1959.9999999999998       44.33333623388517        9739.419609572655        11.687303531494903
71.38801456213827         1960                     34.39442672479414        4949.285123159661        5.939142147910286
10.100199406557016        1960                     10.577330022253104       25519.732955222273       30.86074670893933
10.100199406557016        1960                     15.5                     18052.506922936198       21.77135504591702
14.60616554034848         1960                     15.5                     18236.27649901274        21.905994702413025
0.07080751415799907       1960                     10.563022677481749       25643.366613542763       31.17686325647302
0.07080751415799907       1960                     15.499999999999996       18229.234333811943       22.154054915760344
0.0708075141576891        1960                     0                        46036.125908794784       55.90869320151697
10.100199406556749        1960                     0                        46508.09505439499        56.061902451110626
14.606165540348467        1960                     0                        46616.161499719376       55.98419482636063
14.606165540348478        1960                     10.621198070822329       25571.13212193128        30.71500255757809
39.88465074646963         1960                     0                        36073.41783035251        43.291516186421774
39.8846507464696          1960                     11.102837396771758       19644.399691002967       23.57663443536975
43.9963280293618          1959.9999999999998       11.27172086854748        17283.50502570348        20.740251524733928
43.996328029361806        1959.9999999999998       15.5                     13763.301151383821       16.515990865512002
39.884650746469134        1960                     15.5                     14782.20359771194        17.74025325917593
29.255723767824087        1960                     10.8862582813237         21808.912407317086       26.176674642325167
29.25572376782406         1960                     15.499999999999996       16769.03993061046        20.12707084842963
29.255723767824087        1960                     0                        40300.66410439634        48.37088083710216
24.856316781248722        1960                     10.7514061256436         24594.201839934947       29.530778152078824
24.856316781248722        1960                     15.499999999999996       17351.187435730404       20.831885359397365
24.856316781248722        1960                     0                        42696.50274816011        51.257560594222014
39.884650746469134        1960                     26.602837396771292       13913.54920100515        16.6978831869285
43.996328029361806        1959.9999999999998       26.77172086854748        12862.877772885298       15.435478755482762
43.996328029361806        1959.9999999999998       31                       13119.075528522166       15.7429168547135
39.88465074646878         1959.9999999999998       31                       13929.204079906773       16.716605876080656
29.25572376782406         1960                     26.386258281323222       16289.313756091433       19.551247279262213
29.255723767824037        1960                     31                       16204.985774340375       19.449968398257624
-9.899115398881678        1960                     4.932955142642537        33245.579926573155       55.91804325934084
-9.899115398881678        1960                     15.499999999999996       16688.29812435455        31.20043870940552
-14.388042555469012       1960                     0                        38516.285211789334       68.77018809565465
-14.388042555468868       1960                     4.8896400601687064       32224.1960248308         59.336178444442155
-14.388042555468868       1960                     15.499999999999996       15389.389562450393       34.235199964893724
-9.899115398881678        1960                     0                        41097.597375096964       65.46937776721181
39.88465074646878         1959.9999999999998       42.10283739677094        15147.621856663496       18.178712472736425
43.996328029361806        1959.9999999999998       42.27172086854748        14356.026420099895       17.22726326921326
43.996328029361806        1959.9999999999998       46.49999999999999        13763.296030537555       16.515984738644413
39.884650746468424        1960                     46.5                     14782.193853559305       17.7402416561872
29.255723767824037        1960                     41.88625828132286        17206.71986103519        20.652313634893545
29.255723767824016        1960                     46.5                     16769.025382467597       20.127053496621016
-28.898051555557835       1960                     4.6447871829766365       29497.458206050644       55.375167082826465
-28.898051555557835       1960                     15.499999999999996       13791.338517401226       33.40969280843899
-24.525006114567024       1960                     15.499999999999996       14262.762399963056       32.52813425412103
-24.525006114567024       1960                     4.774636211120802        29768.361642687087       54.220237541731464
-24.525006114567162       1960                     0                        36009.515200740134       63.575041050553466
-28.8980515555577         1960                     0                        33948.02888249639        62.25721810145865
10.100199406556749        1960                     57.07733002225282        38495.756444773935       46.317180855657405
10.100199406556749        1960                     62                       46508.01871044828        56.062014401699386
14.606165540348467        1960                     62                       46616.09989195413        55.98413292110961
0.0708075141589287        1960                     57.06302267748147        38089.08145444044        46.242971258349854
0.0708075141589287        1960                     62                       46036.038405017745       55.909146277162954
0.0708075141586189        1960                     46.5                     18229.24551950588        22.154230335535907
10.100199406557016        1960                     46.5                     18052.551195276235       21.771470450430925
14.60616554034848         1960                     46.50000000000001        18236.284781103954       21.906011069056078
14.606165540348469        1960                     57.121198070822054       38733.81635715037        46.51771000473818
39.88465074646845         1960                     57.60283739677059        30861.455926248294       37.03539574434411
43.996328029361834        1959.9999999999998       57.77172086854747        30105.69296427439        36.12692075405925
39.88465074646809         1960                     62                       36073.42256190379        43.29152262886249
29.255723767824016        1960                     57.3862582813225         34894.13078865135        41.881205210946476
29.255723767823994        1960                     62                       40300.658770536385       48.37087521217181
24.856316781248722        1960                     57.2514061256436         35050.913061297084       42.075406541014836
24.856316781248722        1960                     62                       42696.473505518145       51.25752987306733
24.856316781248722        1960                     46.5                     17351.174925678948       20.831873077980052
-39.38942047757061        1960                     0                        33162.09444330935        46.918214843477124
-39.38942047757074        1960                     4.446541728907633        28874.044183279362       40.28538953136015
-43.49861006506017        1960                     4.282348727027639        28996.670472843805       34.876024092460845
-43.49861006506018        1960                     15.499999999999998       13125.18340703136        15.804872103810556
-39.389420477571015       1960                     15.499999999999998       13237.831422676376       21.520792886568692
-9.899115398881678        1960                     51.43295514264253        24217.810318796925       40.303004921242646
-9.899115398881678        1960                     61.99999999999999        41097.73269845138        65.46894454389074
-14.38804255546858        1960                     46.49999999999999        15389.28291639547        34.235041990646714
-14.388042555468438       1960                     51.3896400601687         21413.35416861604        43.26942590250157
-14.388042555468438       1960                     61.99999999999999        38516.55986204794        68.76927703278093
-9.899115398881678        1960                     46.49999999999999        16688.25852988213        31.20039654041546
-39.38942047757114        1960                     19.94654172890734        12786.149890364579       20.652648433266897
-43.498610065060184       1960                     19.78234872702735        13768.475089664784       16.577592445865733