% Model:              20230907_silksimulation_90kPa.mph
% Version:            COMSOL 6.1.0.357
% Date:               Oct 2 2023, 20:18
% Dimension:          3
% Nodes:              8620
% Expressions:        1
% Description:        サーフェス
% x                       y                        z                        sqrt((ux^2+vy^2+wz^2))
-75.219295476671          1960                     1.6369200948116673       309.06664810710515
-75.21929547667065        1960                     2.583333333333333        464.3095596517328
-74.31307241607497        1960                     2.583333333333333        385.98185393071856
-74.31307241607459        1960                     1.1071501381094206       151.07629848266663
-75.21929547667156        1960                     0                        40.887824511907525
-74.3130724160743         1960                     0                        47.414527359663865
-75.21929547667006        1959.9999999999998       4.22025342814664         755.4883652791053
-75.2192954766696         1959.9999999999998       5.166666666666666        917.3246151680414
-74.31307241607571        1960                     5.166666666666666        769.3407510770476
-74.31307241607536        1960                     3.6904834714405617       511.650853471085
-75.21929547666902        1960                     6.803586761481814        1203.0681224747043
-75.21929547666868        1960                     7.749999999999998        1362.4325010744053
-74.31307241607624        1960                     7.749999999999998        1155.3657496484539
-74.31307241607588        1960                     6.27381680477225         900.489692531975
-75.2192954766681         1960                     9.386920094816787        1642.4298394895
-75.21929547666777        1960                     10.333333333333332       1799.293146707058
-74.313072416077          1960                     10.333333333333332       1543.419540124225
-74.31307241607662        1960                     8.857150138103389        1291.6764849190795
-75.21929547666699        1960                     11.970253428152109       2073.5592484913645
-75.21929547666664        1960                     12.916666666666668       2227.949385834589
-74.31307241607777        1960                     12.916666666666668       1933.4670450187198
-74.31307241607728        1960                     11.440483471434806       1684.8749222875226
-75.21929547666626        1960                     14.553586761486732       2496.5570688800453
-75.21929547666592        1960                     15.499999999999996       2648.471238277437
-74.3130724160783         1960                     15.499999999999996       2325.518182214344
-74.31307241607804        1960                     14.023816804765854       2080.0973293341913
-76.90119385073433        1960                     0.6259116442244723       131.20508189145477
-76.9011938507353         1960                     2.5833333333333335       588.8434548511281
-76.90119385073415        1960                     0                        28.534977476104274
-76.90119385073554        1960                     3.209244977554696        695.874072281037
-76.90119385073614        1960                     5.166666666666667        1155.0519289501015
-76.90119385073632        1960                     5.792578310886068        1260.4477710407843
-76.90119385073669        1960                     7.749999999999998        1699.9927559326911
-76.90119385073689        1960                     8.375911644217934        1803.7345111642396
-76.90119385073766        1960                     10.333333333333334       2223.5897302739695
-76.90119385073783        1960                     10.959244977548813       2325.6958513452682
-76.90119385073841        1960                     12.916666666666666       2725.9107705313877
-76.9011938507386         1959.9999999999998       13.542578310880184       2826.4067516763325
-76.90119385073916        1960                     15.499999999999996       3207.0146296178245
-77.45993046590964        1960                     2.0694420308137915       509.03786387723073
-77.45993046590945        1959.9999999999998       2.5833333333333335       629.8370360589854
-77.45993046591096        1960                     0                        25.209525208513078
-77.45993046590868        1960                     4.652775364148734        1115.2929608073182
-77.45993046590849        1960                     5.166666666666667        1232.9893392663528
-77.45993046590795        1960                     7.236108697483247        1697.688832088125
-77.45993046590775        1960                     7.749999999999998        1810.5485725441913
-77.4599304659067         1959.9999999999998       9.819442030818621        2254.431483474832
-77.4599304659065         1960                     10.333333333333334       2362.4643497983884
-77.4599304659057         1960                     12.402775364153564       2785.5829755542527
-77.4599304659055         1960                     12.916666666666666       2888.8023719771713
-77.4599304659047         1960                     14.986108697488506       3291.2339121087994
-77.4599304659045         1960                     15.499999999999996       3389.619779282674
-79.86408496296508        1959.9999999999998       0.005587392986220694     19.444325650425203
-79.86408496296626        1960                     2.5833333333333326       802.6818845240361
-79.86408496296507        1959.9999999999998       0                        18.13091084056095
-79.86408496296625        1960                     2.5889207263168807       803.9615635455899
-79.86408496296684        1960                     5.166666666666665        1560.95960520262
-79.86408496296683        1960                     5.172254059648875        1562.18669684381
-79.864084962968          1960                     7.749999999999998        2275.277466303438
-79.864084962968          1959.9999999999998       7.755587392979536        2276.4520767237777
-79.8640849629686         1959.9999999999998       10.33333333333333        2945.640531675971
-79.8640849629686         1959.9999999999998       10.338920726311528       2946.7628066161524
-79.86408496296978        1960                     12.916666666666668       3572.100482841003
-79.86408496296977        1960                     12.922254059642194       3573.1705859598096
-79.86408496297067        1960                     15.499999999999996       4154.709609946537
-79.86947221935486        1960                     2.578927970478433        801.7237235426222
-79.86947221935486        1960                     2.5833333333333326       803.0612091694688
-79.86947221935627        1960                     0                        18.127009649266487
-79.86947221935417        1960                     5.162261303812821        1560.406373667002
-79.86947221935415        1960                     5.166666666666665        1561.678338345138
-79.86947221935274        1959.9999999999998       7.745594637148263        2275.0960968849513
-79.86947221935274        1959.9999999999998       7.749999999999998        2276.2955128902922
-79.86947221935205        1959.9999999999998       10.328927970482649       2945.790825435569
-79.86947221935206        1960                     10.33333333333333        2946.917748211871
-79.86947221935065        1960                     12.912261303818095       3572.5421741745663
-79.86947221935065        1960                     12.916666666666668       3573.5966701221237
-79.8694722193496         1960.0000000000002       15.495594637153005       4155.41622670484
-79.8694722193496         1960                     15.499999999999996       4156.3845914044705
-79.88873848137237        1959.9999999999998       2.5641332445780134       797.2979545722226
-79.8887384813723         1960                     2.5833333333333326       804.3829660961254
-82.43901393116987        1960                     0.5779861080917688       240.39007448349133
-82.439013931169          1960                     2.583333333333333        980.381872507555
-82.43901393117012        1960                     0                        27.139413341753528
-79.88873848138292        1960                     0                        18.196557621145008
-79.88873848136703        1960                     5.1474665779159565       1557.38341284771
-79.88873848136696        1960                     5.166666666666665        1564.1800543165593
-82.43901393116877        1960                     3.161319441426655        1187.432298153299
-82.43901393116761        1960                     5.166666666666666        1897.305376736008
-79.8887384813564         1960                     7.730799911258479        2273.5050966943177
-79.88873848135636        1960                     7.749999999999998        2279.8365465703696
-82.43901393116735        1959.9999999999998       5.744652774761944        2090.141836106791
-82.43901393116678        1960                     7.749999999999999        2751.4281255410024
-79.8887384813511         1959.9999999999998       10.314133244596404       2945.49111608336
-79.88873848135103        1959.9999999999998       10.33333333333333        2951.357045997173
-82.43901393116653        1959.9999999999998       8.327986108096427        2930.0243056855247
-82.43901393116538        1959.9999999999998       10.333333333333332       3542.689509336813
-79.88873848134048        1960                     12.897466577938932       3573.3924062718
-79.88873848134045        1960                     12.916666666666668       3578.792954646193
-82.43901393116505        1959.9999999999998       10.911319441431832       3707.0506553378
-82.43901393116448        1960                     12.916666666666664       4271.109230843615
-79.88873848133254        1960                     15.480799911279133       4157.274744160196
-79.88873848133248        1960                     15.499999999999996       4162.196608665547
-82.43901393116423        1960                     13.494652774766317       4421.247529998765
-82.43901393116337        1960                     15.499999999999996       4936.74307372035
-83.22785157277761        1960                     1.8198222398040458       705.183237425694
-83.22785157277792        1960                     2.583333333333333        1033.5420261024647
-83.2278515727769         1959.9999999999998       0                        33.65188646248028
-83.22785157277886        1960                     4.403155573134844        1677.7410952620824
-83.22785157277914        1959.9999999999998       5.166666666666666        1997.7177518028975
-83.22785157277961        1959.9999999999998       6.986488906466606        2597.825045563233
-83.22785157277991        1959.9999999999998       7.749999999999998        2893.4650534348575
-83.22785157278088        1960                     9.569822239797407        3449.4494481192337
-83.22785157278118        1960                     10.333333333333332       3720.664729503933
-83.22785157278165        1960                     12.15315557312917        4232.539345199617
-83.22785157278194        1960                     12.916666666666664       4479.319560908667
-83.22785157278265        1960                     14.73648890646045        4947.107970248848
-83.22785157278294        1959.9999999999998       15.499999999999996       5169.477977062837
-85.1602642107278         1960                     1.2295050578502698       514.0768555624431
-85.16026421072698        1960                     2.583333333333333        1017.6501144789206
-85.16026421072837        1960                     0                        52.69833291009053
-85.16026421072641        1960                     3.8128383911853962       1488.899030299052
-85.1602642107258         1960                     5.166666666666666        2000.9547885800032
-85.16026421072527        1960                     6.396171724520256        2456.534550648941
-85.16026421072463        1960                     7.749999999999998        2951.9148906185605
-85.16026421072408        1960                     8.979505057855114        3391.6502377999404
-85.16026421072347        1960                     10.333333333333332       3870.200081307833
-85.16026421072289        1960                     11.562838391189974       4294.063236246863
-85.16026421072229        1960                     12.916666666666664       4755.757661851054
-85.16026421072172        1960                     14.146171724524834       5163.746459041902
-85.16026421072111        1959.9999999999998       15.499999999999996       5608.606924671723
-97.491000341638          1960                     0.7871486732581077       899.5294243287944
-97.4910003416377         1960                     2.583333333333333        2899.9068047459177
-94.75747336774859        1959.9999999999998       2.583333333333333        2500.5956901435793
-94.75747336774852        1960                     2.2203215331378474       2087.0372199289804
-97.49100034163813        1960                     0                        3.785265005099731
-94.75747336774788        1960                     0                        8.923244716875455
-97.49100034163759        1960                     3.370482006591963        3676.1005595341567
-97.49100034163729        1960                     5.166666666666666        5411.960276180539
-94.75747336774896        1960                     5.166666666666666        4692.597871231424
-94.7574733677489         1960                     4.803654866470535        4334.283587753288
-97.49100034163718        1960                     5.953815339925818        6067.551081806945
-97.49100034163688        1960                     7.75                     7536.164455958019
-94.75747336774964        1960                     7.749999999999998        6576.042680031666
-94.75747336774958        1960.0000000000002       7.386988199802667        6273.457924849032
-97.49100034163673        1960                     8.537148673259674        8071.152847684616
-97.49100034163615        1960                     10.333333333333334       9272.520941341594
-94.75747336775004        1960                     10.333333333333332       8150.933031226079
-94.75747336774997        1960                     9.970321533135355        7904.077471001909
-97.4910003416359         1960                     11.12048200659405        9686.907821003742
-97.4910003416359         1960                     12.916666666666668       10621.03259040708
-94.75747336775109        1959.9999999999998       12.916666666666668       9417.27736954004
-94.75747336775098        1959.9999999999998       12.553654866466935       9226.150469942026
-97.4910003416359         1960                     13.703815339927385       10914.819256389066
-97.4910003416356         1960                     15.5                     11581.701827134024
-94.75747336775142        1960                     15.499999999999996       10375.090367983912
-94.75747336775142        1960                     15.13698819979953        10239.688933334966
-98.69128223683374        1960                     1.6176599090049437       1805.4612571084303
-98.69128223683389        1960                     2.5833333333333335       3068.419854717471
-98.6912822368335         1960                     0                        3.9035647909967395
-98.69128223683413        1959.9999999999998       4.200993242337636        4631.750582170488
-98.69128223683428        1960                     5.166666666666666        5715.523739197719
-98.69128223683451        1960                     6.78432657567033         7038.170029414277
-98.6912822368345         1960                     7.75                     7941.3140952379745
-98.69128223683495        1960                     9.36765990900286         9023.276904665921
-98.69128223683511        1960                     10.333333333333334       9745.791704038229
-98.69128223683511        1960                     11.950993242335958       10587.072794485248
-98.69128223683511        1960                     12.916666666666668       11128.95831302581
-98.69128223683533        1959.9999999999995       14.534326575668887       11729.560235511417
-98.69128223683546        1960                     15.5                     12090.81463962464
-100.71761579375917       1959.9999999999998       1.2565661381450228       1648.6038138102367
-100.71761579375917       1959.9999999999998       2.5833333333333335       3347.0223069751632
-100.71761579375938       1960                     0                        5.200394338157696
-100.71761579375897       1960                     3.8398994714786117       4757.263715966359
-100.71761579375897       1960                     5.166666666666667        6217.58484057725
-100.71761579375894       1960                     6.423232804811945        7392.785713241505
-100.71761579375851       1960                     7.75                     8611.691825715072
-100.7176157937583        1959.9999999999998       9.006566138146074        9551.851934014581
-100.71761579375853       1960                     10.333333333333336       10529.342307348767
-100.71761579375853       1960                     11.589899471479137       11234.461632571558
-100.71761579375828       1959.9999999999998       12.916666666666668       11970.536156638487
-100.71761579375809       1960                     14.173232804812997       12440.614727413391
-100.71761579375786       1960                     15.5                     12935.27212706935
-102.64041859343571       1960                     1.0627464828757465       1363.1010084211014
-102.64041859343592       1960                     2.583333333333333        3599.4442641094356
-102.64041859343571       1960                     0                        2.6601664948241583
-102.64041859343592       1960                     3.6460798162087054       4769.168044345695
-102.6404185934357        1960                     5.166666666666666        6672.592240918857
-102.64041859343601       1960                     6.22941314954189         7648.941512053034
-102.64041859343601       1960                     7.75                     9219.447293273512
-102.64041859343585       1960                     8.812746482875484        10002.421472974114
-102.64041859343584       1960                     10.333333333333332       11240.009729379211
-102.64041859343598       1960                     11.396079816208559       11829.608729432704
-102.64041859343598       1960                     12.916666666666668       12734.28072911613
-102.64041859343614       1960                     13.979413149541628       13130.504556600206
-102.64041859343614       1960                     15.5                     13702.261605868376
-103.99477518220249       1960                     1.699640229469725        2499.6789648202284
-103.99477518220247       1960                     2.5833333333333335       3774.428088398526
-103.99477518220277       1960                     0                        0
-103.99477518220277       1960                     4.28297356280271         5901.985838399478
-103.99477518220277       1960                     5.166666666666667        6988.127507366587
-103.99477518220277       1960                     6.866306896136044        8743.564762116208
-103.9947751822029        1959.9999999999998       7.749999999999999        9641.099303658548
-103.99477518220289       1959.9999999999998       9.449640229469196        11024.417058557845
-103.99477518220273       1960                     10.333333333333334       11733.344924297668
-103.99477518220273       1960                     12.032973562802711       12744.544596761767
-103.99477518220273       1960                     12.916666666666668       13264.866428127418
-103.99477518220273       1960                     14.616306896136045       13903.950107742898
-103.99477518220272       1960                     15.5                     14235.666847390068
-97.49100034163533        1959.9999999999998       16.2871486732614         11846.805991366675
-97.49100034163476        1960                     18.083333333333336       12446.979870324394
-94.75747336775217        1959.9999999999998       18.08333333333333        11190.282699694832
-94.75747336775207        1959.9999999999998       17.720321533131752       11067.982758051166
-97.49100034163476        1960                     18.87048200659546        12662.278830820458
-97.49100034163445        1960                     20.666666666666668       13149.7842819919
-94.7574733677525         1960                     20.666666666666668       11853.421354431763
-94.7574733677525         1960                     20.303654866464356       11754.099847721922
-97.49100034163432        1960                     21.453815339929314       13315.276301787395
-97.49100034163433        1960                     23.25                    13690.113255492426
-94.75747336775318        1960                     23.250000000000004       12364.5085028863
-94.75747336775314        1960                     22.88698819979658        12288.16544864925
-97.4910003416342         1960                     24.037148673262813       13805.798324025223
-97.49100034163362        1960                     25.833333333333336       14067.966751087071
-94.75747336775358        1960                     25.83333333333334        12723.544016824919
-94.75747336775353        1960                     25.47032153312927        12670.179423101115
-97.49100034163337        1960                     26.620482006597186       14133.844872388709
-97.49100034163337        1960                     28.41666666666667        14283.344773129926
-94.75747336775399        1960                     28.416666666666668       12930.527858038255
-94.75747336775389        1960                     28.053654866461954       12900.141726065118
-97.49100034163337        1960                     29.20381533993052        14299.415964368198
-97.49100034163278        1960                     31.000000000000004       14336.247364747443
-94.75747336775464        1960                     31                       12985.460061333746
-94.75747336775464        1960                     30.636988199793997       12978.052386576472
-98.69128223683595        1960                     17.11765990900118        12631.33472701196
-98.69128223683607        1960                     18.083333333333336       12977.471641485892
-98.69128223683632        1960                     19.700993242333873       13416.523394521348
-98.69128223683632        1960                     20.66666666666667        13697.218677971367
-98.69128223683633        1960                     22.284326575667208       14034.800178303663
-98.69128223683646        1960                     23.25                    14250.053829159839
-98.69128223683693        1960                     24.8676599089995         14486.165050512544
-98.6912822368368         1960                     25.833333333333336       14635.977069446493
-98.6912822368368         1960                     27.45099324233307        14770.618012109455
-98.69128223683705        1959.9999999999998       28.41666666666667        14854.988401705497
-98.69128223683754        1960                     30.034326575665126       14888.159089058056
-98.69128223683754        1960                     31.000000000000007       14907.08785385266
-100.71761579375764       1960                     16.756566138146855       13385.67562272974
-100.71761579375766       1960                     18.083333333333332       13857.556291037108
-100.71761579375766       1960                     19.339899471480187       14222.806260056936
-100.71761579375766       1960                     20.66666666666667        14605.551640837024
-100.71761579375743       1960                     21.92323280481378        14885.646797193966
-100.717615793757         1960                     23.250000000000007       15179.256888576778
-100.71761579375722       1959.9999999999998       24.506566138147395       15374.19723314506
-100.7176157937572        1959.9999999999998       25.83333333333333        15578.672035470629
-100.71761579375678       1959.9999999999998       27.089899471481235       15688.457571612456
-100.71761579375679       1959.9999999999998       28.416666666666668       15803.797087065155
-100.71761579375679       1959.9999999999998       29.67323280481457        15828.427820684283
-100.71761579375658       1960                     31                       15854.632053300687
-102.64041859343615       1960                     16.56274648287496        14080.239577614317
-102.64041859343638       1960                     18.083333333333336       14657.312715810498
-102.64041859343638       1960                     19.146079816207923       14963.893485018743
-102.64041859343615       1960                     20.666666666666668       15431.31177226554
-102.64041859343646       1960                     21.72941314954111        15666.494774291834
-102.64041859343646       1960                     23.250000000000004       16024.25806389104
-102.64041859343645       1960                     24.312746482874438       16188.043299007208
-102.64041859343645       1960                     25.833333333333332       16436.15149447073
-102.64041859343646       1960                     26.896079816207774       16528.538964426727
-102.64041859343646       1960                     28.416666666666668       16666.9920003227
-102.64041859343662       1960                     29.479413149540843       16687.981708351923
-102.64041859343662       1960                     31                       16716.779539537674
-103.99477518220246       1960                     17.199640229469725       14880.691970899836
-103.99477518220246       1960                     18.083333333333332       15213.575916868824
-103.99477518220274       1960                     19.78297356280271        15736.034022273981
-103.99477518220274       1960                     20.666666666666668       16005.723577617373
-103.99477518220274       1960                     22.366306896136045       16405.614500945172
-103.99477518220274       1960                     23.250000000000004       16612.109594744157
-103.99477518220274       1960                     24.949640229469377       16889.433228145033
-103.99477518220274       1960                     25.833333333333336       17032.73381397064
-103.99477518220276       1960                     27.53297356280271        17187.49008430794
-103.99477518220276       1960                     28.416666666666664       17267.596130886956
-103.99477518220276       1960                     30.116306896136045       17299.78498770233
-103.99477518220276       1960                     31                       17316.696473698204
-55.267205635892196       1960                     0                        210.1568647052999
-55.26720563589127        1960                     2.4600580484194254       881.9061899356662
-55.13265283593368        1960                     2.413237990803327        871.492191935789
-55.13265283593381        1960                     0                        212.52766344267934
-55.13265283593368        1960                     2.583333333333333        919.273126350051
-55.26720563589123        1960                     2.583333333333333        913.0787035667381
-55.634544183269476       1960                     2.583333333333333        936.820003477312
-55.63454418327009        1960                     2.1003686968844475       810.9751489712155
-55.63454418327272        1960                     0                        203.7162160416603
-55.267205635890605       1960                     5.043391381753279        1630.3330994595915
-55.13265283593359        1960                     4.996571324137363        1622.876668693899
-55.13265283593359        1960                     5.166666666666666        1675.225075792984
-55.26720563589056        1960                     5.166666666666666        1663.9184560826998
-55.63454418326711        1960                     5.166666666666666        1707.701037010138
-55.63454418326772        1960                     4.68370203021996         1577.5142675291613
-55.26720563589024        1960                     7.626724715086892        2275.321203684218
-55.13265283593354        1960                     7.5799046574710465       2274.9915484343946
-55.13265283593353        1960                     7.75                     2320.014127250365
-55.267205635890214       1960                     7.75                     2303.843065137038
-55.63454418326582        1960                     7.75                     2359.7792996174776
-55.63454418326623        1960                     7.267035363554663        2250.901808240904
-55.26720563588928        1960                     10.210058048420976       2806.193397047431
-55.1326528359334         1959.9999999999998       10.163237990805454       2812.8036800976192
-55.13265283593339        1960                     10.333333333333332       2850.190040051155
-55.26720563588925        1959.9999999999998       10.333333333333332       2829.456282114928
-55.63454418326257        1960                     10.333333333333332       2890.0651005239365
-55.63454418326318        1960                     9.850368696890799        2802.9933291593984
-55.26720563588862        1959.9999999999998       12.793391381754832       3224.4867888038093
-55.13265283593331        1960                     12.746571324139468       3237.7022887480903
-55.1326528359333         1960                     12.916666666666668       3267.5568846123265