% Model:              20230907_silksimulation_90kPa.mph
% Version:            COMSOL 6.1.0.357
% Date:               Oct 2 2023, 20:06
% Dimension:          3
% Nodes:              117
% Expressions:        2
% Description:        せん断速度, 
% Length unit:        µm
% x                       y                        z                        spf.sr (1/s)             spf.sr*spf.mu (Pa)
0.23599010651821617       -5000                    0                        77766.09332562247        94.0905260661165
3.595719656432137         -5000                    0                        77149.12827882932        93.18642695902183
3.595719656432137         -5000                    3.4636145305514874       67763.04173465622        81.91999607679932
0.23599010651821617       -5000                    3.462995471541119        67951.36934155837        82.28292101895431
3.595719656432875         -5000                    15.499999999999998       33590.162126655145       40.80713849048077
0.23599010651839283       -5000                    15.5                     33695.51559124669        41.070183536418774
15.273641766278065        -5000                    12.034888500698436       42366.69783093228        50.86802724559456
15.27364176627798         -5000                    0                        75008.29404952817        90.04877731917648
15.273641766278065        -5000                    15.5                     33208.059859575194       39.87468399282879
41.98565622365982         -5000                    12.044864964914233       56525.397798064456       67.83265332352138
45.335315142257286        -5000                    15.499999999999996       56541.59759871932        67.85210109334689
45.33531514225728         -5000                    12.046065583652451       43939.39703807638        52.728973979387895
41.98565622366038         -5000                    0                        12590.380153676213       15.108934785750659
45.335315142257286        -5000                    0                        1.4901161193847656E-8    1.78816529585141E-11
30.30534729212457         -5000                    0                        56476.16878314003        67.77354967339134
30.305347292124125        -5000                    12.039602786363108       36836.05732439768        44.204787735191296
30.305347292123997        -5000                    15.499999999999993       31522.46824746589        37.828313681291846
41.98565622365985         -5000                    15.499999999999996       50894.72805077763        61.075668484866114
26.94936277774731         -5000                    12.038777332889127       41218.52958634945        49.47197047461961
26.949362777747197        -5000                    0                        60615.60346247993        72.74907668189984
26.94936277774731         -5000                    15.499999999999995       32127.449312663783       38.5595826399595
41.98565622365929         -5000                    27.54486496491382        61186.59711076207        73.4263001954479
45.335315142257286        -5000                    31                       69690.59608415177        83.63139714196977
45.335315142257286        -5000                    27.546065583652208       66759.99478433747        80.11456334204863
30.305347292123557        -5000                    27.53960278636385        31996.711433437446       38.397430854940026
30.305347292123432        -5000                    30.999999999999993       32039.312968320974       38.44855748885457
41.98565622365916         -5000                    30.999999999999996       61230.80198567167        73.47935087668947
-11.466179482071107       -5000                    3.4487535908342877       62882.81413518916        94.19298968798807
-11.466179482071107       -5000                    15.499999999999996       31987.51001208509        51.78124784357544
-14.814550134722243       -5000                    3.4448841259100242       62346.380454391896       97.19880152245267
-14.814550134722243       -5000                    15.499999999999995       31372.025668961054       54.672688265231564
-14.814550134722243       -5000                    0                        71193.6899863969         109.33884787496913
-11.466179482071107       -5000                    0                        72655.46281476326        105.94996431901771
41.985656223659724        -5000                    43.044864964914396       51013.452923540826       61.21814679424743
45.335315142257286        -5000                    46.49999999999999        56541.634751248945       67.8521461397638
45.335315142257286        -5000                    43.04606558365195        59472.22856639484        71.36897087437929
30.305347292122992        -5000                    43.039602786364426       31895.868759564113       38.276414411423374
30.305347292122864        -5000                    46.49999999999999        31522.44148049392        37.82828261530415
41.985656223659596        -5000                    46.49999999999999        50894.75280777664        61.075698791375096
-29.869769812469787       -5000                    3.4201898926737777       49610.59429263772        59.55147648849788
-29.869769812469684       -5000                    0                        55174.35729729835        66.22903044759153
-26.542919586593193       -5000                    3.4254175585395576       49891.246738265065       63.64427272826019
-26.542919586593353       -5000                    0                        58715.996220436275       75.75349882367227
-26.542919586592923       -5000                    15.499999999999995       30690.087269796462       40.59767234562359
-29.869769812469517       -5000                    15.499999999999995       30316.58260171079        36.394436965251074
0.235990106518746         -5000                    46.50000000000001        33695.54586048668        41.07068763167024
3.595719656433228         -5000                    46.5                     33590.18093183308        40.80753248714582
3.595719656433228         -5000                    49.963614530552064       43038.2063606507         52.14940239868977
0.23599010651874602       -5000                    49.9629954715417         43659.300795357674       53.05861263854007
3.5957196564328435        -5000                    62.00000000000001        77148.6930770062         93.18630209873602
0.23599010651892247       -5000                    62                       77765.56982718334        94.09039740223615
15.273641766278331        -5000                    58.534888500699594       65608.08847357554        78.7654333953264
15.273641766278242        -5000                    46.50000000000001        33208.05516366019        39.87471547394638
15.273641766278331        -5000                    62                       75008.16241783026        90.04865729553123
41.98565622366073         -5000                    58.54486496491556        6885.214249604867        8.26255152405246
45.335315142257286        -5000                    62                       1.4901161193847656E-8    1.788165302500534E-11
45.335315142257286        -5000                    58.54606558365394        12602.208045321033       15.123136179276276
30.305347292122423        -5000                    58.53960278636501        50831.76448597694        61.00008332434573
30.305347292122295        -5000                    61.999999999999986       56476.17690957682        67.77355972011863
41.98565622366076         -5000                    62                       12590.380473755149       15.108935232765008
26.949362777747673        -5000                    58.53877733289086        51216.10739378367        61.46655203347717
26.949362777747556        -5000                    46.5                     32127.433372791864       38.55957263751681
26.949362777747673        -5000                    61.99999999999999        60615.58192618945        72.74905961053267
-44.926307076649294       -5000                    3.393839363414987        12210.31462120474        14.657967564143947
-44.9263070766493         -5000                    0                        1.4901161193847656E-8    1.7980754009160545E-11
-41.62441926269192        -5000                    3.3993799686522146       6524.78464075043         7.832889445739611
-41.62441926269199        -5000                    0                        12102.65417247954        14.527385481714843
-41.62441926269532        -5000                    15.499999999999998       50126.192828736515       60.174506788282415
-44.9263070766493         -5000                    15.5                     55753.46864032721        66.92965549519909
-11.466179482071107       -5000                    49.948753590834286       41814.58008315333        63.608785086830224
-11.466179482071107       -5000                    62                       72654.14615990252        105.94958835776357
-14.814550134722243       -5000                    49.94488412591019        40246.237634058154       66.85120270461427
-14.814550134722243       -5000                    62                       71192.14377350599        109.33840989950963
-14.814550134722243       -5000                    46.49999999999999        31372.37967132844        54.67450209787463
-11.466179482071107       -5000                    46.5                     31987.81156058722        51.78279945789842
-44.9263070766493         -5000                    18.893839363411495       58574.18877009661        70.31566469236257
-41.62441926269558        -5000                    18.899379968648557       50193.61556465347        60.25531243161583
-29.869769812469617       -5000                    18.92018989267361        30782.212695437116       36.953258019080195
-29.86976981246935        -5000                    30.999999999999993       31175.517667784166       37.42500293577647
-41.62441926268878        -5000                    31                       60248.07886045368        72.32481411917325
-44.9263070766493         -5000                    31                       68633.25636249657        82.39069343431834
-29.86976981246929        -5000                    49.92018989267419        35525.82574816188        42.646417207593984
-29.86976981246919        -5000                    46.49999999999999        30316.001688538814       36.393747892691906
-26.54291958659167        -5000                    49.92541755854029        39245.81697146206        52.38530931781117
-26.54291958659183        -5000                    46.49999999999999        30689.42838954906        40.59719135750925
-26.542919586590834       -5000                    61.999999999999986       58715.068313167525       75.752691226157
-29.86976981246902        -5000.000000000001       61.999999999999986       55173.60712105938        66.22810963320018
-44.926307076649294       -5000                    34.39383936341815        65812.50344250939        79.00464514724595
-41.624419262688725       -5000                    34.39937996865571        60258.797146899546       72.337812964709
-29.869769812469457       -5000                    34.42018989267435        31063.63888569907        37.29083632469951
-41.62441926269156        -5000                    46.5                     50126.029251506676       60.17431211812966
-44.9263070766493         -5000                    46.49999999999999        55753.321364932504       66.92947892159982
-44.926307076649294       -5000                    49.89383936341638        43543.03953394989        52.271550447370075
-41.624419262691816       -5000                    49.899379968652624       55625.6000664823         66.77480949559661
-41.62441926269125        -5000                    61.99999999999999        12102.488798833494       14.527182076761957
-44.926307076649294       -5000                    62                       1.4901161193847656E-8    1.7980618109798152E-11
3.595719656432875         -5000                    18.963614530552064       28439.006005604875       34.621149943355334
0.23599010651839286       -5000                    18.962995471541696       27572.75416097005        33.67275584825944
3.5957196564324905        -5000                    31.000000000000004       7516.905078798314        9.342788962637105
0.23599010651856933       -5000                    31                       6816.649798059124        8.596656071078675
15.273641766278155        -5000                    27.53488850069901        15507.835049126383       18.622281855885312
15.273641766278155        -5000                    31                       10342.82676723822        12.420732771137416
26.94936277774744         -5000                    27.53877733288971        32573.530279606395       39.09493678395925
26.94936277774744         -5000                    30.999999999999996       27340.808900269825       32.812088420129214
3.5957196564324905        -5000                    34.46361453055149        12606.085568035589       15.453303211469922
0.23599010651856933       -5000                    34.46299547154112        12790.256609441913       15.81372627362599
15.273641766278242        -5000                    43.034888500699026       28284.51577879949        33.96307811518344
26.949362777747556        -5000                    43.038777332890284       27203.136082725985       32.64687123164984
-11.466179482071107       -5000                    18.948753590834283       26032.10879908478        44.58313276678491
-11.466179482071107       -5000                    31                       5637.735608305313        13.82492468262243
-14.814550134722243       -5000                    18.944884125910022       25497.47609466645        45.808620807637844
-14.814550134722243       -5000                    31                       5036.398815844814        14.92143797517607
-11.466179482071107       -5000                    34.448753590834286       11538.710116262302       20.95371827896198
-14.814550134722243       -5000                    34.44488412591002        10883.912490894252       23.748550085058596
-26.542919586592923       -5000                    18.925417558539554       25126.205618964457       32.10708323533352
-26.542919586592095       -5000                    30.999999999999993       25952.218878644795       33.09824420712338
-26.542919586592095       -5000                    34.42541755854013        31784.14048707035        41.90989378993223
