% Model:              20230907_silksimulation_60kPa.mph
% Version:            COMSOL 6.1.0.357
% Date:               Oct 7 2023, 16:24
% Table:              テーブル 1 - Aregion
% せん断速度 (1/s)            spf.sr*spf.mu (Pa)
32419.361721475114       43.05621167706177
