% Model:              20230907_silksimulation_60kPa.mph
% Version:            COMSOL 6.1.0.357
% Date:               Oct 7 2023, 16:21
% Dimension:          3
% Nodes:              3577
% Expressions:        1
% Description:        サーフェス
% x                       y                        z                        sqrt((ux^2+vy^2+wz^2))
12.767366551844631        -5000                    0                        0.1086698131507163
13.622601423063621        -5000                    0.8815510934077675       0.6355616653937234
13.622601423063617        -5000                    0                        0.14219384011522596
12.767366551844635        -5000                    0.8814254786952218       0.6773353915988757
13.622601423063632        -5000                    2.583333333333334        1.7322234313103926
12.767366551844646        -5000                    2.5833333333333335       1.7740781060936022
15.273641766277992        -5000                    1.7015551673652687       1.1767243124392412
15.273641766277981        -5000                    0                        0.20677624632503627
15.273641766277997        -5000                    2.5833333333333335       1.6796773882399507
13.622601423063635        -5000                    3.464884426741101        2.2252798628511163
12.767366551844649        -5000                    3.4647588120285553       2.309098526714762
13.62260142306365         -5000                    5.166666666666668        3.2570145495289795
12.767366551844663        -5000                    5.166666666666667        3.3409093694677385
15.273641766278008        -5000                    4.284888500699093        2.6438622856786855
15.273641766278011        -5000                    5.166666666666667        3.1438983665802844
13.622601423063653        -5000                    6.048217760074435        3.686703830966347
12.76736655184467         -5000                    6.048092145361634        3.807498605854688
13.622601423064141        -5000.000000000001       7.75                     4.586312597756798
12.767366551844681        -5000.000000000001       7.75                     4.707173776027626
15.273641766278022        -5000                    6.868221834031935        3.9803907609893945
15.273641766278026        -5000                    7.75                     4.4142799312724215
13.622601423064147        -5000.000000000001       8.631551093408259        4.951712118934477
12.767366551844686        -5000                    8.631425478695967        5.105112640352692
13.622601423063681        -5000                    10.333333333333336       5.718764517589719
12.767366551844697        -5000                    10.333333333333334       5.872221657924246
15.273641766278033        -5000                    9.45155516736527         5.121250263962001
15.273641766278038        -5000                    10.333333333333334       5.488046562172023
13.622601423063685        -5000                    11.214884426741103       6.019818720914722
12.767366551844702        -5000                    11.214758812028556       6.201519381565346
13.622601423063696        -5000                    12.916666666666668       6.654324773029143
12.767366551844713        -5000                    12.916666666666668       6.836072268870237
15.273641766278047        -5000                    12.034888500698603       6.065285571286012
15.27364176627805         -5000                    12.916666666666668       6.364883857668164
13.622601423063701        -5000                    13.798217760074435       6.89116759316857
12.767366551844718        -5000                    13.798092145361888       7.096793826795958
13.622601423063713        -5000                    15.5                     7.39247938292452
12.767366551844733        -5000                    15.5                     7.598097410302669
15.273641766278065        -5000                    14.618221834031935       6.812508930354
15.273641766278068        -5000                    15.5                     7.044315031436076
11.115983985727727        -5000                    0.8811983611271986       0.6326105272629541
11.115983985727743        -5000                    2.5833333333333335       1.8498404924712144
10.261091312533074        -5000                    0.8810727978143091       0.67184622048411
10.261091312533088        -5000                    2.5833333333333335       1.889165978469956
10.261091312533068        -5000                    0                        0.04100786600994509
11.115983985727722        -5000                    0                        0.06409147730338224
11.115983985727746        -5000                    3.464531694460532        2.3847230539769853
11.115983985727755        -5000                    5.166666666666667        3.4875175605553013
10.261091312533097        -5000                    3.4644061311473884       2.460674227624907
10.261091312533106        -5000                    5.166666666666667        3.5635500852912525
11.115983985727516        -5000.000000000001       6.047865027793612        3.953986570541748
11.115983985727532        -5000.000000000001       7.750000000000002        4.916164203809361
10.261091312533111        -5000                    6.04773946448123         4.062209017559487
10.261091312533129        -5000                    7.750000000000002        5.024457628870971
11.115983985728029        -5000                    8.631198361127453        5.314000530926775
11.115983985728517        -5000                    10.333333333333332       6.135524298015886
10.261091312533132        -5000                    8.631072797814056        5.450250022123333
10.261091312533145        -5000                    10.333333333333334       6.271834391484322
11.115983985728274        -5000                    11.214531694461023       6.464737171264343
11.115983985728288        -5000                    12.916666666666668       7.145635190737272
10.261091312533152        -5000.000000000001       11.214406131148134       6.62477702801263
10.261091312533166        -5000.000000000001       12.91666666666667        7.305725276058771
11.115983985728295        -5000                    13.797865027794359       7.406289568342624
11.115983985727834        -5000                    15.500000000000004       7.94587909945902
10.261091312533171        -5000                    13.797739464481722       7.58584725067961
10.261091312533184        -5000                    15.500000000000004       8.125518811423103
8.609366529714356         -5000                    0.8808456352412101       0.6471175891333254
8.609366529713894         -5000                    2.5833333333333335       1.9585045983593805
7.754816048343975         -5000                    0.8807201233258797       0.6829369015397534
7.754816048343988         -5000                    2.583333333333333        1.9944205896994758
7.754816048343968         -5000                    0                        0.0037903281346200217
8.60936652971435          -5000                    0                        0.016441880542868888
8.609366529713654         -5000                    3.4641789685737994       2.5298654984133053
8.609366529713672         -5000                    5.166666666666668        3.6947499033156426
7.754816048343995         -5000                    3.4640534566589762       2.597683354084938
7.754816048344013         -5000                    5.166666666666668        3.7626536373594774
8.609366529714169         -5000                    6.04751230190764         4.193280268856232
8.609366529714663         -5000                    7.750000000000001        5.209220215881897
7.7548160483440185        -5000                    6.04738678999231         4.2887500998883725
7.754816048344034         -5000                    7.75                     5.304764944705572
8.609366529714173         -5000                    8.630845635240956        5.634902829220671
8.609366529713713         -5000                    10.333333333333336       6.501909273216617
7.754816048344042         -5000                    8.630720123326133        5.753701622232174
7.754816048344057         -5000                    10.333333333333336       6.620771984245829
8.609366529713965         -5000                    11.214178968574053       6.854760912317646
8.609366529714453         -5000                    12.916666666666668       7.572848627764056
7.754816048344063         -5000                    11.214053456658977       6.99255762904099
7.754816048344075         -5000                    12.916666666666666       7.71069828382117
8.609366529714706         -5000                    13.797512301908133       7.8528983799432694
8.609366529714723         -5000                    15.500000000000002       8.421576036888716
7.7548160483440824        -5000                    13.7973867899928         8.00534447667505
7.754816048344098         -5000                    15.5                     8.574154741437521
6.102749055021869         -5000.000000000001       0.8804929157474106       0.6823362442288644
6.10274905502141          -5000                    2.583333333333333        2.056561832760651
5.248540759278017         -5000                    0.8803674552283053       0.7143418569615064
5.248540759278033         -5000                    2.583333333333333        2.0886686945909148
5.24854075927801          -5000                    0                        0.00298287724057888
6.102749055022109         -5000                    0                        0.0033648765948746493
6.102749055021663         -5000                    3.4638262490805065       2.659668967828405
6.102749055021679         -5000                    5.166666666666666        3.8783846202293404
5.248540759278041         -5000                    3.4637007885614013       2.719327272150428
5.2485407592780575        -5000                    5.166666666666667        3.938132716111872
6.102749055021684         -5000                    6.0471595824138396       4.404345360750613
6.102749055022178         -5000                    7.749999999999999        5.465480778749817
5.248540759278065         -5000                    6.047034121894988        4.487164216211855
5.248540759278082         -5000.000000000001       7.75                     5.5483778157005395
6.102749055022186         -5000                    8.630492915747663        5.914301639897657
6.102749055022203         -5000                    10.333333333333332       6.817860494389651
5.2485407592780895        -5000                    8.630367455228559        6.015784661737076
5.2485407592781055        -5000                    10.333333333333332       6.919410087918205
6.102749055022209         -5000                    11.213826249080997       7.189550226177213
6.102749055022226         -5000                    12.916666666666668       7.93553767814295
5.2485407592781135        -5000                    11.21370078856189        7.305195578957477
5.248540759278131         -5000                    12.916666666666668       8.051237993192142
6.102749055022233         -5000                    13.79715958241433        8.230107858372378
6.102749055022251         -5000                    15.499999999999998       8.81830615765037
5.2485407592781375        -5000                    13.797034121895226       8.355406515916517
5.248540759278155         -5000                    15.5                     8.943742494161576
3.596131561652218         -5000                    0.8801402026471162       0.7255211018768484
3.5961315616522365        -5000                    2.583333333333334        2.1434923219762148
2.7422654453358737        -5000                    0.8800147935223924       0.7536602844003456
2.7422654453358923        -5000                    2.5833333333333335       2.1717359122303397
2.7422654453358657        -5000                    0                        0.02068817312181058
3.5961315616524567        -5000                    0                        0.014345747940054556
3.5961315616524905        -5000                    3.463473535980704        2.773988105251993
3.5961315616525096        -5000                    5.166666666666668        4.038669085916471
2.7422654453359           -5000                    3.463348126855726        2.825639719710592
2.742265445335919         -5000                    5.166666666666667        4.090413821074245
3.596131561652763         -5000                    6.046806869314291        4.587558862438925
3.5961315616532583        -5000                    7.750000000000002        5.685638322369974
2.7422654453359274        -5000                    6.046681460188806        4.658047087262743
2.7422654453359465        -5000                    7.750000000000001        5.756207400728467
3.596131561653019         -5000                    8.630140202647864        6.152924514909667
3.5961315616525615        -5000                    10.333333333333336       7.084389983702485
2.742265445335954         -5000                    8.630014793522884        6.237563441371096
2.7422654453359727        -5000                    10.333333333333334       7.169097495615088
3.5961315616525686        -5000                    11.213473535980704       7.47007589047373
3.5961315616525873        -5000                    12.916666666666668       8.234927520876317
2.7422654453359803        -5000                    11.213348126855728       7.564176889341779
2.742265445336            -5000                    12.916666666666666       8.32908483712375
3.5961315616525944        -5000                    13.796806869314036       8.53901752742941
3.59613156165309          -5000                    15.500000000000004       9.137226314510453
2.7422654453360074        -5000                    13.79668146018906        8.63789002955624
2.742265445336027         -5000                    15.500000000000002       9.236187771432892
1.0895140496063878        -5000                    0.8797874959406431       0.788991709659095
1.0895140496059321        -5000                    2.583333333333333        2.219632684390802
0.23599010651822475       -5000                    0.8796621382076986       0.8217145270953167
0.23599010651824548       -5000                    2.5833333333333335       2.268673720086337
0.23599010651821617       -5000                    0                        0.07480340246203364
1.0895140496061337        -5000                    0                        0.05620891654840718
1.0895140496059397        -5000                    3.4631208292734854       2.8733675961257186
1.0895140496059605        -5000                    5.166666666666666        4.176310388557811
0.23599010651825414       -5000                    3.4629954715407942       2.946574944452336
0.23599010651827498       -5000                    5.166666666666667        4.259462428068854
1.0895140496057225        -5000                    6.046454162606565        4.7437970416780475
1.0895140496066964        -5000.000000000001       7.750000000000001        5.87096652639155
0.2359901065182836        -5000                    6.046328804874127        4.842974240807169
0.2359901065183046        -5000                    7.75                     5.973712471772228
1.0895140496069502        -5000.000000000001       8.629787495941134        6.3521982383696844
1.0895140496060178        -5000                    10.333333333333332       7.303413467735476
0.2359901065183132        -5000                    8.629662138208444        6.462746454960601
0.2359901065183338        -5000                    10.333333333333334       7.411170679265884
1.0895140496060258        -5000                    11.213120829273485       7.698390817051495
1.0895140496069997        -5000.000000000001       12.916666666666671       8.4736268244267
0.2359901065183424        -5000                    11.212995471540793       7.805724378620386
0.23599010651836344       -5000                    12.916666666666668       8.571828717662935
1.0895140496070077        -5000.000000000001       13.796454162607805       8.782352256071263
1.0895140496070284        -5000.000000000001       15.5                     9.381486937520851
0.23599010651837204       -5000                    13.796328804875111       8.871919715023505
0.23599010651839286       -5000                    15.5                     9.455539089549502
31.960598198335514        -5000                    1.706989764189353        0.6549844007629667
32.81034169959618         -5000                    2.5833333333333326       0.8310173095943204
32.81034169959621         -5000                    1.7073465056421253       0.6373009653547478
31.960598198335088        -5000                    0                        0.2778925884433672
32.81034169959626         -5000                    0                        0.2601303451337803
30.30534729212457         -5000                    0                        0.31257271331623604
30.305347292124505        -5000                    1.7062694530295328       0.31847572825067716
30.305347292124473        -5000                    2.583333333333332        0.3216220236868045
31.960598198335482        -5000                    2.583333333333332        0.651912170535495
31.96059819833543         -5000                    4.290323097522685        1.155159776599984
32.81034169959611         -5000                    5.166666666666665        1.5927416423481735
32.81034169959613         -5000                    4.290679838975458        1.3343700886867076
30.305347292124416        -5000                    4.289602786363357        0.35694887396462277
30.305347292124384        -5000                    5.166666666666665        0.37536389217234434
31.960598198335397        -5000                    5.166666666666664        1.146260023857978
31.96059819833534         -5000                    6.873656430856018        1.6552114252928773
32.810341699596016        -5000                    7.749999999999998        2.363046687688137
32.81034169959605         -5000                    6.87401317230879         2.1017994088393532
30.305347292124313        -5000                    6.872936119696197        0.45944049864078446
30.30534729212428         -5000                    7.7499999999999964       0.5030872497017411
31.96059819833531         -5000                    7.7499999999999964       1.665785859255543
31.96059819833526         -5000                    9.45698976418935         2.175329069642359
32.81034169959594         -5000                    10.33333333333333        3.1342109831856892
32.810341699595966        -5000                    9.45734650564187         2.8726963868125
30.305347292124225        -5000                    9.456269453030023        0.6775229215164772
30.30534729212419         -5000                    10.33333333333333        0.7675307400102737
31.960598198335227        -5000                    10.333333333333329       2.2540248639172127
31.960598198335656        -5000                    12.040323097523174       2.7642221124748056
32.81034169959587         -5000                    12.916666666666664       3.9063377141835307
32.810341699595895        -5000.000000000001       12.040679838975947       3.644514857166952
30.305347292124132        -5000                    12.039602786363355       1.0242152403564388
30.305347292124097        -5000                    12.916666666666664       1.1563360477188205
31.960598198335624        -5000                    12.916666666666663       2.905338369746538
31.96059819833509         -5000                    14.623656430856016       3.4171660946613653
32.81034169959578         -5000                    15.499999999999996       4.67717423745758
32.81034169959581         -5000                    14.624013172309041       4.41827240527418
30.305347292124033        -5000                    14.62293611969669        1.482278865362146
30.305347292124004        -5000                    15.499999999999996       1.6439284055125447
31.960598198335056        -5000                    15.499999999999993       3.603879926302282
34.4666374956252          -5000                    1.708067282232739        1.2228906682446534
35.31533620074914         -5000                    2.583333333333332        1.7162621892560566
35.31533620074916         -5000                    1.708423590360581        1.2053998389713132
34.46663749562477         -5000                    0                        0.2255255851047655
35.3153362007492          -5000                    0                        0.20782670238454876
34.46663749562517         -5000                    2.583333333333332        1.4164476194411648
34.46663749562466         -5000                    4.291400615565578        2.440598010668788
35.31533620074907         -5000                    5.166666666666664        3.265183151208009
35.3153362007491          -5000                    4.291756923693673        2.7406262214291335
34.46663749562464         -5000                    5.166666666666664        2.698756971901298
34.46663749562458         -5000                    6.874733948898912        3.6289665683831247
35.31533620074901         -5000                    7.749999999999998        4.672040705140333
35.31533620074903         -5000                    6.875090257026754        4.195586792294091
34.46663749562431         -5000                    7.749999999999998        3.8899988886080195
34.46663749562427         -5000                    9.45806728223199         4.725062398383196
35.315336200748945        -5000                    10.333333333333329       5.935016954141115
35.315336200748966        -5000                    9.458423590360084        5.507278411751374
34.46663749562449         -5000                    10.333333333333329       4.986361816179673
34.46663749562444         -5000                    12.041400615565578       5.726820491857726
35.315336200748874        -5000                    12.916666666666664       7.054935170695469
35.315336200748895        -5000                    12.04175692369342        6.675630091793365
34.46663749562467         -5000                    12.916666666666664       5.98842791665577
34.46663749562511         -5000                    14.624733948899653       6.635292571642677
35.315336200748824        -5000                    15.499999999999996       8.030692252388803
35.315336200748845        -5000                    14.625090257027498       7.70193476365324
34.46663749562508         -5000                    15.499999999999995       6.89470434142817
36.97267691779501         -5000                    1.7091448324084375       1.8370838648231516
37.82033079558754         -5000.000000000001       2.5833333333333326       2.6702746186359088
37.82033079558755         -5000                    1.709500707185351        1.8197946748318652
36.97267691779504         -5000                    0                        0.1732974361117291
37.82033079558758         -5000                    0                        0.15566181578117477
36.97267691779524         -5000                    2.583333333333333        2.3475250797729994
36.972676917795674        -5000                    4.292478165742516        3.9115801157402768
37.82033079558749         -5000                    5.166666666666665        5.034178063784506
37.8203307955875          -5000.000000000001       4.292834040518924        4.23465531906728
36.97267691779541         -5000                    5.166666666666666        4.43570462089712
36.9726769177949          -5000                    6.875811499075102        5.803467114240409
37.82033079558744         -5000                    7.7499999999999964       7.101445111893223
37.82033079558745         -5000                    6.876167373852015        6.402225349945549
36.97267691779488         -5000                    7.749999999999997        6.27952825674799
36.97267691779485         -5000                    9.459144832408436        7.450699656718156
37.820330795587395        -5000                    10.33333333333333        8.871626642801507
37.82033079558741         -5000                    9.459500707185349        8.272860370869827
36.97267691779483         -5000                    10.33333333333333        7.878085587852909
36.97267691779479         -5000                    12.042478165741768       8.853053406657114
37.82033079558734         -5000                    12.916666666666664       10.345310790658766
37.82033079558735         -5000                    12.042834040518933       9.846797467488352
36.97267691779501         -5000                    12.916666666666664       9.232045800994928
36.972676917794985        -5000                    14.625811499075352       10.011456332399465
37.820330795587296        -5000                    15.499999999999993       11.521802450040049
37.82033079558731         -5000                    14.626167373852265       11.124883609391869
36.97267691779497         -5000                    15.499999999999995       10.340577336000916
39.47871646485194         -4999.999999999999       1.7102224147193623       2.489925997869232
40.32532548411557         -5000                    2.5833333333333326       3.6814077199710624
40.325325484115574        -5000                    1.7105778561193472       2.4728458404752702
39.47871646485196         -4999.999999999999       0                        0.12120817219561414
40.325325484115595        -5000                    0                        0.10363571603812294
39.478716464851686        -5000                    2.583333333333332        3.339703521364525
39.478716464851665        -5000                    4.293555748052443        5.469260561906292
40.32532548411554         -5000                    5.166666666666665        6.8979859705936395
40.325325484115545        -5000                    4.29391118945268         5.811407353669052
39.4787164648519          -4999.999999999999       5.166666666666664        6.268122972400857
39.47871646485188         -4999.999999999999       6.876889081386027        8.092117907336883
40.32532548411551         -5000                    7.749999999999998        9.653077737528507
40.32532548411552         -5000                    6.877244522786013        8.722359992663398
39.478716464851864        -4999.999999999999       7.749999999999998        8.790760176347092
39.478716464851836        -4999.999999999999       9.46022241471936         10.30914325370029
40.32532548411547         -5000                    10.33333333333333        11.94660860157014
40.32532548411548         -5000                    9.460577856119345        11.171776385653132
39.47871646485206         -5000                    10.333333333333329       10.907414998286145
39.47871646485204         -5000                    12.043555748052945       12.120377574579791
40.32532548411544         -5000                    12.916666666666664       13.778868538127561
40.32532548411545         -5000                    12.043911189452679       13.159823272043017
39.47871646485203         -5000                    12.916666666666664       12.618479170366296
39.478716464852006        -5000                    14.626889081386278       13.526329476961283
40.3253254841154          -5000                    15.499999999999996       15.149489639592918
40.32532548411541         -5000                    14.627244522786011       14.686907526370588
39.478716464851985        -5000                    15.499999999999995       13.923476332310655
41.98475613680162         -5000                    1.7113000291669533       3.1811787748817997
42.83032026633742         -5000                    2.583333333333333        4.749201884564909
42.830320266337424        -5000                    1.7116550371640076       3.1643149504938926
41.98475613680115         -5000.000000000001       0                        0.06925782408961989
42.83032026633744         -5000                    0                        0.051748433871688995
41.98475613680161         -5000                    2.583333333333333        4.388740613886844
41.98475613680161         -5000                    4.294633362500286        7.111579691818541
42.83032026633741         -5000                    5.166666666666666        8.859373973127813
42.83032026633742         -5000                    4.294988370497592        7.472605813563963
41.98475613680159         -5000                    5.166666666666666        8.19725920491424
41.9847561368011          -5000.000000000001       6.877966695833124        10.497192154136927
42.83032026633739         -5000                    7.749999999999998        12.33120465175169
42.83032026633739         -5000                    6.87832170383043         11.159784041836836
41.984756136801096        -5000.000000000001       7.749999999999998        11.427139764310983
41.98475613680108         -5000.000000000001       9.461300029166459        13.304166320242398
42.830320266337374        -5000                    10.333333333333332       15.164693604400725
42.83032026633738         -5000                    9.461655037163764        14.208620595532782
41.98475613680107         -5000.000000000001       10.333333333333332       14.078357391008243
41.98475613680106         -5000.000000000001       12.04463336249979        15.532528275443774
42.83032026633735         -5000                    12.916666666666664       17.35991751418434
42.83032026633737         -5000                    12.044988370497094       16.619166155571854
41.984756136801046        -5000.000000000001       12.916666666666664       16.15106130434645
41.98475613680103         -5000.000000000001       14.627966695833123       17.182457155958577
42.83032026633734         -5000                    15.499999999999996       18.9167669952351