% Model:              20230907_silksimulation_60kPa.mph
% Version:            COMSOL 6.1.0.357
% Date:               Oct 7 2023, 16:21
% Dimension:          3
% Nodes:              6683
% Expressions:        1
% Description:        サーフェス
% x                       y                        z                        sqrt((ux^2+vy^2+wz^2))
-4132.601771309903        6000                     2.764386146159211        1214.4607077843305
-4132.601771309903        6000                     3.1                      1361.8977845408485
-4132.100759278386        6000                     3.1000000000000005       1320.024795021212
-4132.100759278386        6000                     0.3439358219746913       109.23904524313116
-4132.601771309903        6000                     0                        0.018998328936465986
-4132.100759278386        6000                     0                        0.01977783179065775
-4132.601771309904        6000                     5.864386146157331        2430.212156226646
-4132.601771309904        6000                     6.2                      2559.9090049539827
-4132.100759278384        6000                     6.2                      2485.777400398796
-4132.100759278386        6000                     3.4439358219748115       1420.6790515785292
-4132.601771309904        6000                     8.964386146156048        3482.079105175684
-4132.601771309904        6000                     9.299999999999999        3594.0336615296933
-4132.100759278383        6000                     9.3                      3497.2578164660017
-4132.1007592783835       6000                     6.543935821976852        2577.8637513197705
-4132.601771309904        6000                     12.064386146156048       4370.059490288289
-4132.601771309903        6000                     12.400000000000002       4464.2717542685705
-4132.100759278383        6000                     12.4                     4354.466043220647
-4132.100759278383        6000                     9.643935821977692        3580.7762617457747
-4132.601771309904        6000                     15.164386146154284       5094.153311596146
-4132.6017713099045       6000                     15.5                     5170.623283207148
-4132.10075927838         6000                     15.5                     5057.402080699951
-4132.100759278382        6000                     12.743935821977812       4429.416582862677
-4136.7286307579525       6000                     0.2670173232666731       117.31518864003327
-4136.7286307579525       6000.000000000001        3.100000000000001        1706.7968600597137
-4136.728630757953        6000                     0                        0.012958308194195108
-4136.7286307579525       6000                     3.3670173232679406       1809.9848095049815
-4136.72863075795         6000                     6.200000000000002        3170.5161926770115
-4136.72863075795         6000                     6.467017323268928        3259.5882188255728
-4136.728630757947        6000                     9.299999999999999        4391.157997976318
-4136.728630757947        6000                     9.567017323271795        4466.114100828664
-4136.728630757947        6000                     12.400000000000004       5368.722275964861
-4136.728630757946        6000                     12.667017323271985       5429.562455523184
-4136.728630757944        6000                     15.5                     6103.209026665069
-4137.117604325917        6000                     2.8394526062636407       1593.1240959280974
-4137.117604325917        6000                     3.100000000000001        1739.3041011540504
-4137.117604325916        6000                     0                        0.012386637515047039
-4137.117604325916        6000.000000000001        5.939452606262499        3102.9426484630067
-4137.117604325916        6000                     6.200000000000002        3228.0668351827003
-4137.1176043259175       6000                     9.03945260625951         4362.220878893239
-4137.1176043259175       6000                     9.299999999999999        4466.288202195037
-4137.117604325917        6000                     12.139452606259338       5370.957742314269
-4137.117604325917        6000                     12.400000000000004       5453.968202197429
-4137.1176043259175       6000                     15.239452606257316       6129.153238745612
-4137.1176043259175       6000                     15.5                     6191.106835212415
-4141.356772793955        6000.000000000001        0.1899864671615069       106.5982814823458
-4141.3567727939535       6000                     3.1                      2093.5679546394335
-4141.356772793955        6000.000000000001        0                        0.006454313154039665
-4141.3567727939535       6000                     3.2899864671625867       2184.806258160574
-4141.356772793951        6000                     6.2                      3855.253934277104
-4141.356772793951        6000                     6.389986467164748        3931.137952219289
-4141.356772793949        6000.000000000001        9.299999999999999        5285.05793894248
-4141.356772793949        6000                     9.489986467165826        5345.5876713055095
-4141.356772793945        6000                     12.4                     6382.979968638989
-4141.356772793945        6000                     12.589986467167922       6428.155415424282
-4141.356772793943        6000                     15.5                     7149.020023374449
-4141.63353910657         6000                     2.914623452681359        1990.1234096992584
-4141.63353910657         6000                     3.1                      2116.696425521246
-4141.633539106571        6000.000000000001        0                        0.006063577611141063
-4141.63353910657         6000                     6.014623452679313        3789.790353897899
-4141.63353910657         6000                     6.2                      3896.2004918116227
-4141.63353910657         6000.000000000001        9.114623452678195        5252.265301073595
-4141.63353910657         6000.000000000001        9.299999999999999        5338.512198894942
-4141.63353910657         6000                     12.21462345267609        6377.547889045416
-4141.63353910657         6000                     12.4                     6443.6315467746645
-4141.633539106572        6000                     15.31462345267299        7165.638117820269
-4141.633539106572        6000                     15.5                     7211.558535457645
-4145.985185400748        6000                     0.11284324769522668      77.04831734448463
-4145.985185400745        6000.000000000001        3.1                      2480.3378726476217
-4145.985185400748        6000.000000000001        0                        2.2047071094539363E-4
-4145.985185400745        6000                     3.2128432476973874       2545.1123315727705
-4145.985185400742        6000                     6.2                      4539.990260366816
-4145.985185400742        6000                     6.312843247699548        4592.490860873059
-4145.985185400738        6000.000000000001        9.299999999999999        6178.957163159016
-4145.985185400738        6000.000000000001        9.412843247701707        6219.183905245989
-4145.985185400737        6000                     12.4                     7397.238581024281
-4145.985185400737        6000                     12.51284324770387        7425.191464691781
-4145.985185400732        6000                     15.5                     8194.834513962936
-4146.149575646597        6000.000000000001        2.98989868001017         2405.495548079194
-4146.149575646598        6000.000000000001        3.1                      2494.0745981036735
-4146.149575646598        6000.000000000001        0                        0
-4146.149575646597        6000.000000000001        6.089898680008063        4490.783636383044
-4146.149575646597        6000.000000000001        6.2                      4564.309731730939
-4146.149575646597        6000.000000000001        9.189898680005916        6152.232260211396
-4146.149575646597        6000                     9.299999999999999        6210.705400882146
-4146.149575646598        6000.000000000001        12.289898680003809       7389.841419564065
-4146.149575646598        6000                     12.4                     7433.261605557044
-4146.149575646599        6000                     15.389898680000684       8203.611114440962
-4146.149575646599        6000                     15.5                     8231.978345755924
-4132.601771309903        6000                     18.264386146155935       5661.792653907386
-4132.601771309902        6000                     18.6                     5721.4224464666895
-4132.100759278382        6000                     18.6                     5602.139675945028
-4132.10075927838         6000                     15.843935821979493       5112.449105337415
-4132.601771309903        6000                     21.364386146155223       6101.94919680553
-4132.601771309904        6000                     21.700000000000003       6148.146569546661
-4132.100759278381        6000                     21.700000000000003       6024.2963142855615
-4132.100759278382        6000                     18.943935821977696       5644.915196684284
-4132.601771309903        6000                     24.464386146155938       6418.030699426309
-4132.601771309903        6000                     24.8                     6450.79565234787
-4132.100759278381        6000                     24.8                     6323.871995623768
-4132.100759278381        6000                     22.043935821978533       6054.800331038472
-4132.601771309903        6000                     27.564386146155936       6610.037161765624
-4132.601771309902        6000                     27.900000000000002       6629.369694867056
-4132.100759278381        6000                     27.900000000000002       6500.866719955466
-4132.100759278381        6000                     25.143935821977692       6342.104508389508
-4132.601771309901        6000                     30.664386146158044       6677.9685838195755
-4132.601771309901        6000                     31                       6683.868697100852
-4132.100759278383        6000                     31                       6555.280487278162
-4132.100759278381        6000                     28.243935821977573       6506.827728733899
-4136.728630757944        6000                     15.76701732327377        6150.651012132809
-4136.728630757946        6000                     18.600000000000005       6703.934851773263
-4136.728630757946        6000                     18.867017323271          6740.689886376729
-4136.728630757945        6000                     21.700000000000003       7168.279903965173
-4136.728630757945        6000                     21.967017323272973       7194.347987645488
-4136.728630757945        6000                     24.800000000000008       7496.24418317804
-4136.728630757945        6000                     25.06701732327279        7511.625315934401
-4136.728630757947        6000                     27.900000000000006       7687.827689407484
-4136.728630757946        6000                     28.167017323271892       7692.521871239731
-4136.728630757946        6000                     31                       7743.0304226539165
-4137.117604325915        6000                     18.339452606260128       6745.654257338598
-4137.117604325915        6000.000000000001        18.600000000000005       6796.538362895091
-4137.1176043259175       6000                     21.43945260625837        7225.104905086385
-4137.1176043259175       6000                     21.700000000000003       7264.429273947539
-4137.117604325917        6000                     24.539452606258287       7567.014936142521
-4137.117604325917        6000                     24.800000000000004       7594.77956830748
-4137.117604325917        6000                     27.639452606259255       7771.384350502672
-4137.117604325917        6000                     27.900000000000006       7787.589245971133
-4137.117604325915        6000.000000000001        30.7394526062603         7838.213148167397
-4137.117604325915        6000.000000000001        31                       7842.858306939349
-4141.356772793943        6000                     15.689986467170831       7186.123796724933
-4141.356772793944        6000                     18.6                     7805.734785177079
-4141.356772793944        6000                     18.78998646716887        7834.409406735485
-4141.3567727939435       6000                     21.7                     8312.268834442622
-4141.3567727939435       6000                     21.889986467169884       8332.514304188218
-4141.356772793945        6000                     24.8                     8668.622171149382
-4141.356772793945        6000                     24.989986467168805       8680.438489081784
-4141.356772793945        6000                     27.900000000000006       8874.79479529532
-4141.356772793944        6000                     28.089986467168806       8878.181961414522
-4141.356772793945        6000                     31                       8930.786706880557
-4141.63353910657         6000                     18.414623452674846       7832.151085302472
-4141.63353910657         6000                     18.6                     7871.621401941244
-4141.633539106571        6000                     21.514623452673856       8350.237834258165
-4141.633539106571        6000                     21.7                     8380.67832868056
-4141.633539106571        6000                     24.614623452674845       8717.318643449029
-4141.633539106571        6000                     24.8                     8738.72931565466
-4141.633539106571        6000                     27.71462345267485        8933.393512873734
-4141.633539106571        6000                     27.900000000000002       8945.774362862645
-4141.63353910657         6000                     30.814623452675963       8998.46244253184
-4141.63353910657         6000                     31                       9001.813470304021
-4145.985185400732        6000                     15.61284324770699        8218.861063068978
-4145.985185400735        6000                     18.6                     8907.539026007813
-4145.985185400735        6000                     18.71284324770491        8926.068901021197
-4145.985185400733        6000                     21.700000000000003       9456.262711740907
-4145.985185400733        6000                     21.812843247705953       9469.295912661479
-4145.985185400735        6000                     24.8                     9841.005571164595
-4145.985185400735        6000.000000000001        24.91284324770483        9848.54209799207
-4145.985185400737        6000                     27.900000000000002       10061.767604276785
-4145.985185400737        6000                     28.012843247703792       10063.807457011219
-4145.985185400736        6000                     31                       10118.548811077924
-4146.149575646598        6000                     18.489898680002643       8921.288450006388
-4146.149575646598        6000                     18.6                     8946.671435311027
-4146.149575646598        6000                     21.589898680001667       9477.351913862773
-4146.149575646598        6000                     21.700000000000003       9496.893563596626
-4146.149575646598        6000                     24.68989868000268        9868.94441645129
-4146.149575646598        6000                     24.8                     9882.644730613934
-4146.149575646598        6000                     27.7898986800037         10096.065957770088
-4146.149575646598        6000                     27.900000000000002       10103.924936361658
-4146.149575646597        6000                     30.889898680003736       10158.716537820084
-4146.149575646597        6000                     31                       10160.734180840689
-4110.023084031307        5999.999999999999        2.39252355558522         326.00995975276004
-4110.023084031307        5999.999999999999        3.0999999999999996       422.4088649026224
-4108.967385826326        6000                     3.1                      393.73645635697096
-4108.967385826325        6000                     0.7247449231296129       70.08054982855603
-4110.023084031308        6000                     0                        0.0010609317501974569
-4108.967385826325        6000                     0                        0.0020286878310089985
-4110.023084031307        5999.999999999999        5.492523555585461        724.2512933839666
-4110.023084031307        5999.999999999999        6.199999999999999        813.5043790909277
-4108.967385826325        6000                     6.2                      758.9591850727395
-4108.967385826326        6000                     3.824744923128786        459.2952989560675
-4110.023084031307        5999.999999999999        8.59252355558546         1091.1795381760357
-4110.023084031307        5999.999999999999        9.299999999999999        1173.2865425712066
-4108.967385826325        6000                     9.299999999999999        1095.6681861790557
-4108.967385826325        6000                     6.924744923128531        819.9971137625183
-4110.023084031307        5999.999999999999        11.69252355558546        1426.7944322710996
-4110.023084031306        6000                     12.399999999999999       1501.7553553578323
-4108.967385826325        6000                     12.399999999999999       1403.8634596877018
-4108.967385826325        6000                     10.024744923128532       1152.1852009593676
-4110.023084031306        6000                     14.792523555586513       1731.0959756855732
-4110.023084031306        6000                     15.499999999999996       1798.910817467736
-4108.967385826326        6000                     15.499999999999996       1683.5450056151672
-4108.967385826325        6000                     13.12474492312853        1455.8595605608614
-4113.593318282114        6000.000000000001        0.6490348219802966       88.4371904815734
-4113.593318282115        6000.000000000001        3.1                      519.3713151112615
-4113.593318282114        6000                     0                        0.0013892093616885404
-4113.593318282115        6000.000000000001        3.749034821979443        601.251582716314
-4113.593318282114        6000.000000000001        6.2                      997.9618336565244
-4113.593318282114        6000.000000000001        6.849034821979443        1073.2863273574908
-4113.593318282114        6000.000000000001        9.299999999999999        1435.7715556596802
-4113.5933182821145       6000                     9.949034821979216        1504.5402754596362
-4113.5933182821145       6000                     12.4                     1832.8004811379494
-4113.5933182821145       6000                     13.049034821979216       1895.0134270405138
-4113.593318282114        6000                     15.499999999999996       2189.048610111642
-4114.538754902416        6000                     2.4664519740701643       433.6584859078159
-4114.538754902416        6000.000000000001        3.1                      545.0470572646406
-4114.538754902416        6000                     0                        0.0014385050540162622
-4114.538754902415        6000.000000000001        5.5664519740705956       944.2639822295844
-4114.538754902415        6000.000000000001        6.2                      1046.8063356215355
-4114.538754902415        6000.000000000001        8.666451974070593        1411.5819819403537
-4114.538754902415        6000                     9.299999999999999        1505.2778350991111
-4114.538754902415        6000                     11.76645197407038        1835.612202785978
-4114.538754902415        6000                     12.4                     1920.4615557153127
-4114.538754902416        6000.000000000001        14.866451974069538       2216.3546447871267
-4114.538754902416        6000                     15.499999999999996       2292.357497491585
-4118.219521105842        6000                     0.5732117935828951       100.79122677524833
-4118.219521105844        6000                     3.0999999999999996       645.0034345234026
-4118.219521105842        6000                     0                        0.010796312423521507
-4118.219521105844        6000                     3.6732117935820146       737.780120583933
-4118.219521105842        6000                     6.2                      1236.9593730148072
-4118.219521105842        6000                     6.773211793583094        1321.7320592869044
-4118.219521105842        6000                     9.299999999999999        1775.8678157004083
-4118.219521105842        6000                     9.873211793583094        1852.636502187314
-4118.219521105843        6000                     12.4                     2261.7287625761387
-4118.219521105843        6000                     12.973211793582013       2330.493449281786
-4118.219521105843        6000                     15.499999999999996       2694.542213660983
-4119.054526650441        6000                     2.5404854273950566       547.17520419334
-4119.054526650441        6000                     3.1                      667.6783256296787
-4119.054526650441        6000                     0                        0.01292930089326571
-4119.054526650441        6000                     5.640485427394192        1169.5635304273105
-4119.054526650441        6000                     6.199999999999999        1280.0951926954926
-4119.054526650441        6000                     8.74048542739419         1736.6927295595644
-4119.054526650441        6000                     9.299999999999999        1837.2506014684168
-4119.054526650441        6000                     11.840485427394865       2248.5604703914223
-4119.0545266504405       6000                     12.4                     2339.144551939187
-4119.0545266504405       6000                     14.940485427395053       2705.1667529362476
-4119.054526650441        6000                     15.499999999999996       2785.7770441264297
-4122.845994311937        6000                     0.49727583191142627      107.12886007550121
-4122.845994311938        6000                     3.1                      770.6327034475805
-4122.845994311937        6000                     0                        0.03014827396076517
-4122.845994311938        6000                     3.59727583191052         868.8691516081309
-4122.845994311937        6000                     6.2                      1475.95158911356
-4122.845994311937        6000                     6.697275831910693        1565.3237017571137
-4122.845994311937        6000                     9.299999999999999        2115.9566580203477
-4122.845994311937        6000                     9.797275831911426        2196.464435145569
-4122.845994311938        6000                     12.4                     2690.6479100429656
-4122.845994311938        6000                     12.89727583191052        2762.291351652574
-4122.845994311937        6000                     15.5                     3200.0253451777526
-4123.570399270131        6000                     2.6146239100932283       589.2873690837797
-4123.570399270132        6000                     3.0999999999999996       698.6724406879092
-4123.570399270132        6000                     0                        0.0334483419100465
-4123.570399270131        6000                     5.714623910093393        1263.5795195966652
-4123.570399270131        6000                     6.199999999999999        1368.4451422692082
-4123.570399270132        6000                     8.814623910092504        1908.9771757671328
-4123.570399270132        6000                     9.299999999999999        2009.3181060993743
-4123.570399270132        6000                     11.914623910093393       2525.4750940343556
-4123.570399270132        6000                     12.399999999999999       2621.291331997555
-4123.570399270132        6000                     15.014623910092505       3113.073274354225
-4123.570399270132        6000                     15.5                     3204.364819945922
-4127.4731997730205       6000                     0.4207100383862728       82.40368166859895
-4127.47319977302         6000                     3.1                      933.2552157099303
-4127.4731997730205       6000                     0                        0.02714138536099321
-4127.47319977302         6000                     3.5207100383872065       1016.916869352007
-4127.47319977302         6000                     6.2                      1801.0436830931294
-4127.47319977302         6000                     6.62071003838814         1885.9859052836337
-4127.473199773018        6000                     9.3                      2603.365402936922
-4127.473199773018        6000                     9.720710038389074        2689.5881936467604
-4127.473199773018        6000                     12.4                     3340.220375178152
-4127.473199773018        6000                     12.820710038389073       3427.7237344032774
-4127.473199773019        6000                     15.5                     4011.608599843857
-4128.086035800774        6000.000000000001        2.6894511058899493       854.1045060984034
-4128.086035800774        6000.000000000001        3.1                      984.4772420481636
-4128.086035800773        6000.000000000001        0                        0.026137590026271685
-4128.086035800774        6000                     5.789451105889035        1771.5778383212212
-4128.086035800775        6000                     6.2                      1891.7267058867556
-4128.086035800775        6000.000000000001        8.88945110588798         2611.82684844281
-4128.086035800775        6000                     9.299999999999999        2721.7483921834764
-4128.086035800775        6000                     11.989451105887841       3374.848080988239
-4128.086035800775        6000.000000000001        12.4                     3474.5423008986036
-4128.086035800774        6000                     15.089451105888894       4060.6415359832476
-4128.086035800774        6000                     15.5                     4150.108432067874
-4132.601771309902        6000                     33.76438614615793        6635.270002383049
-4132.601771309901        6000                     34.1                     6629.369905927156
-4132.1007592783835       6000                     34.1                     6500.866789539181
-4132.100759278383        6000                     31.343935821975535       6549.3194845892685
-4132.601771309901        6000                     36.864386146158274       6470.12854044709
-4132.601771309902        6000                     37.2                     6450.79602023257
-4132.1007592783835       6000                     37.2                     6323.872138412191
-4132.1007592783835       6000                     34.443935821975415       6482.634280784606
-4132.601771309902        6000                     39.96438614615816        6180.911983997483
-4132.601771309902        6000                     40.300000000000004       6148.14704002439
-4132.1007592783835       6000                     40.300000000000004       6024.296533905264
-4132.1007592783835       6000                     37.54393582197553        6293.368123598209
-4132.601771309902        6000                     43.06438614615899        5767.620333038194
-4132.601771309902        6000                     43.400000000000006       5721.42296530722
-4132.100759278385        6000                     43.400000000000006       5602.139976023433
-4132.1007592783835       6000                     40.64393582197554        5981.521013032678
-4132.601771309901        6000                     46.164386146160155       5230.253587580513
-4132.601771309901        6000                     46.5                     5170.623796093016
-4132.100759278385        6000.000000000001        46.50000000000001        5057.402464778546
-4132.100759278385        6000                     43.74393582197446        5547.092949094138
-4136.728630757946        6000                     31.267017323270622       7738.336254209375
-4136.728630757948        6000                     34.10000000000001        7687.827848709915
-4136.728630757948        6000                     34.367017323269735       7672.446726206596
-4136.728630757949        6000                     37.20000000000001        7496.244497011855
-4136.728630757949        6000                     37.46701732326983        7470.176420451121
-4136.728630757949        6000                     40.300000000000004       7168.280367561701
-4136.72863075795         6000                     40.56701732326865        7131.525336944273
-4136.728630757951        6000.000000000001        43.40000000000001        6703.935460362297
-4136.728630757951        6000                     43.66701732326758        6656.493475689097
-4136.728630757951        6000                     46.50000000000001        6103.209775419942
-4137.117604325915        6000                     33.839452606261275       7792.234550991354
-4137.117604325915        6000                     34.10000000000001        7787.589400784168
-4137.117604325916        6000                     36.93945260626136        7610.984763196508